M 0.0 nn 8 x 800 y 800 rp AODV
M 0.0 sc scn.tcl cp cbr-exp1.tcl seed 0.0
M 0.0 prop Propagation/TwoRayGround ant Antenna/OmniAntenna
s 2.000000000 _1_ AGT  --- 0 cbr 512 [0 0 0 0] ------- [1:0 0:0 32 0] [0] 0 1
r 2.000000000 _1_ RTR  --- 0 cbr 512 [0 0 0 0] ------- [1:0 0:0 32 0] [0] 0 1
s 2.000000000 _1_ RTR  --- 0 AODV 48 [0 0 0 0] ------- [1:255 -1:255 30 0] [0x2 1 1 [0 0] [1 4]] (REQUEST)
s 2.000115000 _1_ MAC  --- 0 AODV 106 [0 ffffffff 1 800] ------- [1:255 -1:255 30 0] [0x2 1 1 [0 0] [1 4]] (REQUEST)
r 2.000963471 _4_ MAC  --- 0 AODV 48 [0 ffffffff 1 800] ------- [1:255 -1:255 30 0] [0x2 1 1 [0 0] [1 4]] (REQUEST)
r 2.000963471 _2_ MAC  --- 0 AODV 48 [0 ffffffff 1 800] ------- [1:255 -1:255 30 0] [0x2 1 1 [0 0] [1 4]] (REQUEST)
r 2.000963667 _0_ MAC  --- 0 AODV 48 [0 ffffffff 1 800] ------- [1:255 -1:255 30 0] [0x2 1 1 [0 0] [1 4]] (REQUEST)
r 2.000963667 _3_ MAC  --- 0 AODV 48 [0 ffffffff 1 800] ------- [1:255 -1:255 30 0] [0x2 1 1 [0 0] [1 4]] (REQUEST)
r 2.000988471 _4_ RTR  --- 0 AODV 48 [0 ffffffff 1 800] ------- [1:255 -1:255 30 0] [0x2 1 1 [0 0] [1 4]] (REQUEST)
r 2.000988471 _2_ RTR  --- 0 AODV 48 [0 ffffffff 1 800] ------- [1:255 -1:255 30 0] [0x2 1 1 [0 0] [1 4]] (REQUEST)
r 2.000988667 _0_ RTR  --- 0 AODV 48 [0 ffffffff 1 800] ------- [1:255 -1:255 30 0] [0x2 1 1 [0 0] [1 4]] (REQUEST)
r 2.000988667 _3_ RTR  --- 0 AODV 48 [0 ffffffff 1 800] ------- [1:255 -1:255 30 0] [0x2 1 1 [0 0] [1 4]] (REQUEST)
s 2.000988667 _0_ RTR  --- 0 AODV 44 [0 0 0 0] ------- [0:255 1:255 30 1] [0x4 1 [0 4] 10.000000] (REPLY)
s 2.001203667 _0_ MAC  --- 0 ARP 86 [0 ffffffff 0 806] ------- [REQUEST 0/0 0/1]
s 2.001869698 _4_ RTR  --- 0 AODV 48 [0 ffffffff 1 800] ------- [4:255 -1:255 29 0] [0x2 2 1 [0 0] [1 4]] (REQUEST)
r 2.001892333 _1_ MAC  --- 0 ARP 28 [0 ffffffff 0 806] ------- [REQUEST 0/0 0/1]
s 2.002322333 _1_ MAC  --- 0 RTS 44 [52e 0 1 0] 
r 2.002675000 _0_ MAC  --- 0 RTS 44 [52e 0 1 0] 
s 2.002685000 _0_ MAC  --- 0 CTS 38 [3f4 1 0 0] 
r 2.002989667 _1_ MAC  --- 0 CTS 38 [3f4 1 0 0] 
s 2.002999667 _1_ MAC  --- 0 ARP 86 [13a 0 1 806] ------- [REPLY 1/1 0/0]
r 2.003688333 _0_ MAC  --- 0 ARP 28 [13a 0 1 806] ------- [REPLY 1/1 0/0]
s 2.003698333 _0_ MAC  --- 0 ACK 38 [0 1 0 0] 
r 2.004003000 _1_ MAC  --- 0 ACK 38 [0 1 0 0] 
s 2.004412333 _0_ MAC  --- 0 RTS 44 [5ae 1 0 0] 
r 2.004765000 _1_ MAC  --- 0 RTS 44 [5ae 1 0 0] 
s 2.004775000 _1_ MAC  --- 0 CTS 38 [474 0 0 0] 
r 2.005079667 _0_ MAC  --- 0 CTS 38 [474 0 0 0] 
s 2.005089667 _0_ MAC  --- 0 AODV 102 [13a 1 0 800] ------- [0:255 1:255 30 1] [0x4 1 [0 4] 10.000000] (REPLY)
s 2.005400205 _2_ RTR  --- 0 AODV 48 [0 ffffffff 1 800] ------- [2:255 -1:255 29 0] [0x2 2 1 [0 0] [1 4]] (REQUEST)
r 2.005906333 _1_ MAC  --- 0 AODV 44 [13a 1 0 800] ------- [0:255 1:255 30 1] [0x4 1 [0 4] 10.000000] (REPLY)
s 2.005916333 _1_ MAC  --- 0 ACK 38 [0 0 0 0] 
r 2.005931333 _1_ RTR  --- 0 AODV 44 [13a 1 0 800] ------- [0:255 1:255 30 1] [0x4 1 [0 4] 10.000000] (REPLY)
s 2.005931333 _1_ RTR  --- 0 cbr 532 [0 0 0 0] ------- [1:0 0:0 30 0] [0] 0 1
r 2.006221000 _0_ MAC  --- 0 ACK 38 [0 0 0 0] 
s 2.006310333 _1_ MAC  --- 0 RTS 44 [14ee 0 1 0] 
r 2.006663000 _0_ MAC  --- 0 RTS 44 [14ee 0 1 0] 
s 2.006673000 _0_ MAC  --- 0 CTS 38 [13b4 1 0 0] 
r 2.006977667 _1_ MAC  --- 0 CTS 38 [13b4 1 0 0] 
s 2.008980221 _3_ RTR  --- 0 AODV 48 [0 ffffffff 1 800] ------- [3:255 -1:255 29 0] [0x2 2 1 [0 0] [1 4]] (REQUEST)
D 2.012025667 _1_ MAC  DOS 0 cbr 590 [13a 0 1 800] ------- [1:0 0:0 30 0] [0] 0 1
s 2.012231000 _3_ MAC  --- 0 AODV 106 [0 ffffffff 3 800] ------- [3:255 -1:255 29 0] [0x2 2 1 [0 0] [1 4]] (REQUEST)
r 2.013079333 _6_ MAC  --- 0 AODV 48 [0 ffffffff 3 800] ------- [3:255 -1:255 29 0] [0x2 2 1 [0 0] [1 4]] (REQUEST)
r 2.013079471 _4_ MAC  --- 0 AODV 48 [0 ffffffff 3 800] ------- [3:255 -1:255 29 0] [0x2 2 1 [0 0] [1 4]] (REQUEST)
r 2.013079471 _2_ MAC  --- 0 AODV 48 [0 ffffffff 3 800] ------- [3:255 -1:255 29 0] [0x2 2 1 [0 0] [1 4]] (REQUEST)
r 2.013079667 _1_ MAC  --- 0 AODV 48 [0 ffffffff 3 800] ------- [3:255 -1:255 29 0] [0x2 2 1 [0 0] [1 4]] (REQUEST)
r 2.013104333 _6_ RTR  --- 0 AODV 48 [0 ffffffff 3 800] ------- [3:255 -1:255 29 0] [0x2 2 1 [0 0] [1 4]] (REQUEST)
r 2.013104471 _4_ RTR  --- 0 AODV 48 [0 ffffffff 3 800] ------- [3:255 -1:255 29 0] [0x2 2 1 [0 0] [1 4]] (REQUEST)
r 2.013104471 _2_ RTR  --- 0 AODV 48 [0 ffffffff 3 800] ------- [3:255 -1:255 29 0] [0x2 2 1 [0 0] [1 4]] (REQUEST)
r 2.013104667 _1_ RTR  --- 0 AODV 48 [0 ffffffff 3 800] ------- [3:255 -1:255 29 0] [0x2 2 1 [0 0] [1 4]] (REQUEST)
s 2.013209471 _4_ MAC  --- 0 AODV 106 [0 ffffffff 4 800] ------- [4:255 -1:255 29 0] [0x2 2 1 [0 0] [1 4]] (REQUEST)
s 2.013209471 _2_ MAC  --- 0 AODV 106 [0 ffffffff 2 800] ------- [2:255 -1:255 29 0] [0x2 2 1 [0 0] [1 4]] (REQUEST)
D 2.013209943 _3_ MAC  COL 0 AODV 106 [0 ffffffff 4 800] ------- [4:255 -1:255 29 0] [0x2 2 1 [0 0] [1 4]] (REQUEST)
D 2.013209943 _1_ MAC  COL 0 AODV 106 [0 ffffffff 4 800] ------- [4:255 -1:255 29 0] [0x2 2 1 [0 0] [1 4]] (REQUEST)
D 2.013210217 _6_ MAC  COL 0 AODV 106 [0 ffffffff 4 800] ------- [4:255 -1:255 29 0] [0x2 2 1 [0 0] [1 4]] (REQUEST)
D 2.014057943 _3_ MAC  COL 0 AODV 106 [0 ffffffff 2 800] ------- [2:255 -1:255 29 0] [0x2 2 1 [0 0] [1 4]] (REQUEST)
D 2.014057943 _1_ MAC  COL 0 AODV 106 [0 ffffffff 2 800] ------- [2:255 -1:255 29 0] [0x2 2 1 [0 0] [1 4]] (REQUEST)
r 2.014058138 _7_ MAC  --- 0 AODV 48 [0 ffffffff 4 800] ------- [4:255 -1:255 29 0] [0x2 2 1 [0 0] [1 4]] (REQUEST)
r 2.014058138 _5_ MAC  --- 0 AODV 48 [0 ffffffff 2 800] ------- [2:255 -1:255 29 0] [0x2 2 1 [0 0] [1 4]] (REQUEST)
D 2.014058217 _6_ MAC  COL 0 AODV 106 [0 ffffffff 2 800] ------- [2:255 -1:255 29 0] [0x2 2 1 [0 0] [1 4]] (REQUEST)
r 2.014083138 _7_ RTR  --- 0 AODV 48 [0 ffffffff 4 800] ------- [4:255 -1:255 29 0] [0x2 2 1 [0 0] [1 4]] (REQUEST)
r 2.014083138 _5_ RTR  --- 0 AODV 48 [0 ffffffff 2 800] ------- [2:255 -1:255 29 0] [0x2 2 1 [0 0] [1 4]] (REQUEST)
s 2.017340901 _6_ RTR  --- 0 AODV 48 [0 ffffffff 3 800] ------- [6:255 -1:255 28 0] [0x2 3 1 [0 0] [1 4]] (REQUEST)
s 2.017570548 _5_ RTR  --- 0 AODV 48 [0 ffffffff 2 800] ------- [5:255 -1:255 28 0] [0x2 3 1 [0 0] [1 4]] (REQUEST)
s 2.017635901 _6_ MAC  --- 0 AODV 106 [0 ffffffff 6 800] ------- [6:255 -1:255 28 0] [0x2 3 1 [0 0] [1 4]] (REQUEST)
r 2.018484234 _3_ MAC  --- 0 AODV 48 [0 ffffffff 6 800] ------- [6:255 -1:255 28 0] [0x2 3 1 [0 0] [1 4]] (REQUEST)
r 2.018484646 _4_ MAC  --- 0 AODV 48 [0 ffffffff 6 800] ------- [6:255 -1:255 28 0] [0x2 3 1 [0 0] [1 4]] (REQUEST)
r 2.018484646 _2_ MAC  --- 0 AODV 48 [0 ffffffff 6 800] ------- [6:255 -1:255 28 0] [0x2 3 1 [0 0] [1 4]] (REQUEST)
r 2.018509234 _3_ RTR  --- 0 AODV 48 [0 ffffffff 6 800] ------- [6:255 -1:255 28 0] [0x2 3 1 [0 0] [1 4]] (REQUEST)
r 2.018509646 _4_ RTR  --- 0 AODV 48 [0 ffffffff 6 800] ------- [6:255 -1:255 28 0] [0x2 3 1 [0 0] [1 4]] (REQUEST)
r 2.018509646 _2_ RTR  --- 0 AODV 48 [0 ffffffff 6 800] ------- [6:255 -1:255 28 0] [0x2 3 1 [0 0] [1 4]] (REQUEST)
s 2.018919103 _5_ MAC  --- 0 AODV 106 [0 ffffffff 5 800] ------- [5:255 -1:255 28 0] [0x2 3 1 [0 0] [1 4]] (REQUEST)
r 2.019767769 _2_ MAC  --- 0 AODV 48 [0 ffffffff 5 800] ------- [5:255 -1:255 28 0] [0x2 3 1 [0 0] [1 4]] (REQUEST)
r 2.019792769 _2_ RTR  --- 0 AODV 48 [0 ffffffff 5 800] ------- [5:255 -1:255 28 0] [0x2 3 1 [0 0] [1 4]] (REQUEST)
s 2.022153424 _7_ RTR  --- 0 AODV 48 [0 ffffffff 4 800] ------- [7:255 -1:255 28 0] [0x2 3 1 [0 0] [1 4]] (REQUEST)
s 2.022408424 _7_ MAC  --- 0 AODV 106 [0 ffffffff 7 800] ------- [7:255 -1:255 28 0] [0x2 3 1 [0 0] [1 4]] (REQUEST)
r 2.023257090 _4_ MAC  --- 0 AODV 48 [0 ffffffff 7 800] ------- [7:255 -1:255 28 0] [0x2 3 1 [0 0] [1 4]] (REQUEST)
r 2.023282090 _4_ RTR  --- 0 AODV 48 [0 ffffffff 7 800] ------- [7:255 -1:255 28 0] [0x2 3 1 [0 0] [1 4]] (REQUEST)
s 3.000000000 _2_ AGT  --- 1 cbr 512 [0 0 0 0] ------- [2:0 5:0 32 0] [0] 0 1
r 3.000000000 _2_ RTR  --- 1 cbr 512 [0 0 0 0] ------- [2:0 5:0 32 0] [0] 0 1
s 3.000000000 _2_ RTR  --- 0 AODV 48 [0 0 0 0] ------- [2:255 -1:255 30 0] [0x2 1 1 [5 0] [2 4]] (REQUEST)
s 3.000615000 _2_ MAC  --- 0 AODV 106 [0 ffffffff 2 800] ------- [2:255 -1:255 30 0] [0x2 1 1 [5 0] [2 4]] (REQUEST)
r 3.001463471 _3_ MAC  --- 0 AODV 48 [0 ffffffff 2 800] ------- [2:255 -1:255 30 0] [0x2 1 1 [5 0] [2 4]] (REQUEST)
r 3.001463471 _1_ MAC  --- 0 AODV 48 [0 ffffffff 2 800] ------- [2:255 -1:255 30 0] [0x2 1 1 [5 0] [2 4]] (REQUEST)
r 3.001463667 _4_ MAC  --- 0 AODV 48 [0 ffffffff 2 800] ------- [2:255 -1:255 30 0] [0x2 1 1 [5 0] [2 4]] (REQUEST)
r 3.001463667 _5_ MAC  --- 0 AODV 48 [0 ffffffff 2 800] ------- [2:255 -1:255 30 0] [0x2 1 1 [5 0] [2 4]] (REQUEST)
r 3.001463745 _6_ MAC  --- 0 AODV 48 [0 ffffffff 2 800] ------- [2:255 -1:255 30 0] [0x2 1 1 [5 0] [2 4]] (REQUEST)
r 3.001488471 _3_ RTR  --- 0 AODV 48 [0 ffffffff 2 800] ------- [2:255 -1:255 30 0] [0x2 1 1 [5 0] [2 4]] (REQUEST)
r 3.001488471 _1_ RTR  --- 0 AODV 48 [0 ffffffff 2 800] ------- [2:255 -1:255 30 0] [0x2 1 1 [5 0] [2 4]] (REQUEST)
r 3.001488667 _4_ RTR  --- 0 AODV 48 [0 ffffffff 2 800] ------- [2:255 -1:255 30 0] [0x2 1 1 [5 0] [2 4]] (REQUEST)
r 3.001488667 _5_ RTR  --- 0 AODV 48 [0 ffffffff 2 800] ------- [2:255 -1:255 30 0] [0x2 1 1 [5 0] [2 4]] (REQUEST)
s 3.001488667 _5_ RTR  --- 0 AODV 44 [0 0 0 0] ------- [5:255 2:255 30 2] [0x4 1 [5 4] 10.000000] (REPLY)
r 3.001488745 _6_ RTR  --- 0 AODV 48 [0 ffffffff 2 800] ------- [2:255 -1:255 30 0] [0x2 1 1 [5 0] [2 4]] (REQUEST)
s 3.001623667 _5_ MAC  --- 0 ARP 86 [0 ffffffff 5 806] ------- [REQUEST 5/5 0/2]
r 3.002312333 _2_ MAC  --- 0 ARP 28 [0 ffffffff 5 806] ------- [REQUEST 5/5 0/2]
s 3.002622333 _2_ MAC  --- 0 RTS 44 [52e 5 2 0] 
r 3.002975000 _5_ MAC  --- 0 RTS 44 [52e 5 2 0] 
s 3.002985000 _5_ MAC  --- 0 CTS 38 [3f4 2 0 0] 
r 3.003289667 _2_ MAC  --- 0 CTS 38 [3f4 2 0 0] 
s 3.003299667 _2_ MAC  --- 0 ARP 86 [13a 5 2 806] ------- [REPLY 2/2 5/5]
r 3.003988333 _5_ MAC  --- 0 ARP 28 [13a 5 2 806] ------- [REPLY 2/2 5/5]
s 3.003998333 _5_ MAC  --- 0 ACK 38 [0 2 0 0] 
r 3.004303000 _2_ MAC  --- 0 ACK 38 [0 2 0 0] 
s 3.004372333 _5_ MAC  --- 0 RTS 44 [5ae 2 5 0] 
r 3.004725000 _2_ MAC  --- 0 RTS 44 [5ae 2 5 0] 
s 3.004735000 _2_ MAC  --- 0 CTS 38 [474 5 0 0] 
r 3.005039667 _5_ MAC  --- 0 CTS 38 [474 5 0 0] 
s 3.005049667 _5_ MAC  --- 0 AODV 102 [13a 2 5 800] ------- [5:255 2:255 30 2] [0x4 1 [5 4] 10.000000] (REPLY)
r 3.005866333 _2_ MAC  --- 0 AODV 44 [13a 2 5 800] ------- [5:255 2:255 30 2] [0x4 1 [5 4] 10.000000] (REPLY)
s 3.005876333 _2_ MAC  --- 0 ACK 38 [0 5 0 0] 
r 3.005891333 _2_ RTR  --- 0 AODV 44 [13a 2 5 800] ------- [5:255 2:255 30 2] [0x4 1 [5 4] 10.000000] (REPLY)
s 3.005891333 _2_ RTR  --- 1 cbr 532 [0 0 0 0] ------- [2:0 5:0 30 5] [0] 0 1
r 3.006181000 _5_ MAC  --- 0 ACK 38 [0 5 0 0] 
s 3.006410333 _2_ MAC  --- 0 RTS 44 [14ee 5 2 0] 
r 3.006763000 _5_ MAC  --- 0 RTS 44 [14ee 5 2 0] 
s 3.006773000 _5_ MAC  --- 0 CTS 38 [13b4 2 0 0] 
r 3.007077667 _2_ MAC  --- 0 CTS 38 [13b4 2 0 0] 
s 3.007087667 _2_ MAC  --- 1 cbr 590 [13a 5 2 800] ------- [2:0 5:0 30 5] [0] 0 1
s 3.008261961 _1_ RTR  --- 0 AODV 48 [0 ffffffff 2 800] ------- [1:255 -1:255 29 0] [0x2 2 1 [5 0] [2 4]] (REQUEST)
s 3.009110986 _4_ RTR  --- 0 AODV 48 [0 ffffffff 2 800] ------- [4:255 -1:255 29 0] [0x2 2 1 [5 0] [2 4]] (REQUEST)
s 3.009999537 _3_ RTR  --- 0 AODV 48 [0 ffffffff 2 800] ------- [3:255 -1:255 29 0] [0x2 2 1 [5 0] [2 4]] (REQUEST)
s 3.010538200 _6_ RTR  --- 0 AODV 48 [0 ffffffff 2 800] ------- [6:255 -1:255 29 0] [0x2 2 1 [5 0] [2 4]] (REQUEST)
r 3.011808333 _5_ MAC  --- 1 cbr 532 [13a 5 2 800] ------- [2:0 5:0 30 5] [0] 1 1
s 3.011818333 _5_ MAC  --- 0 ACK 38 [0 2 0 0] 
r 3.011833333 _5_ AGT  --- 1 cbr 532 [13a 5 2 800] ------- [2:0 5:0 30 5] [0] 1 1
r 3.012123000 _2_ MAC  --- 0 ACK 38 [0 2 0 0] 
s 3.012737387 _3_ MAC  --- 0 AODV 106 [0 ffffffff 3 800] ------- [3:255 -1:255 29 0] [0x2 2 1 [5 0] [2 4]] (REQUEST)
r 3.013585721 _6_ MAC  --- 0 AODV 48 [0 ffffffff 3 800] ------- [3:255 -1:255 29 0] [0x2 2 1 [5 0] [2 4]] (REQUEST)
r 3.013585859 _4_ MAC  --- 0 AODV 48 [0 ffffffff 3 800] ------- [3:255 -1:255 29 0] [0x2 2 1 [5 0] [2 4]] (REQUEST)
r 3.013585859 _2_ MAC  --- 0 AODV 48 [0 ffffffff 3 800] ------- [3:255 -1:255 29 0] [0x2 2 1 [5 0] [2 4]] (REQUEST)
r 3.013586054 _1_ MAC  --- 0 AODV 48 [0 ffffffff 3 800] ------- [3:255 -1:255 29 0] [0x2 2 1 [5 0] [2 4]] (REQUEST)
r 3.013610721 _6_ RTR  --- 0 AODV 48 [0 ffffffff 3 800] ------- [3:255 -1:255 29 0] [0x2 2 1 [5 0] [2 4]] (REQUEST)
r 3.013610859 _4_ RTR  --- 0 AODV 48 [0 ffffffff 3 800] ------- [3:255 -1:255 29 0] [0x2 2 1 [5 0] [2 4]] (REQUEST)
r 3.013610859 _2_ RTR  --- 0 AODV 48 [0 ffffffff 3 800] ------- [3:255 -1:255 29 0] [0x2 2 1 [5 0] [2 4]] (REQUEST)
r 3.013611054 _1_ RTR  --- 0 AODV 48 [0 ffffffff 3 800] ------- [3:255 -1:255 29 0] [0x2 2 1 [5 0] [2 4]] (REQUEST)
s 3.013655859 _4_ MAC  --- 0 AODV 106 [0 ffffffff 4 800] ------- [4:255 -1:255 29 0] [0x2 2 1 [5 0] [2 4]] (REQUEST)
r 3.014504330 _1_ MAC  --- 0 AODV 48 [0 ffffffff 4 800] ------- [4:255 -1:255 29 0] [0x2 2 1 [5 0] [2 4]] (REQUEST)
r 3.014504330 _3_ MAC  --- 0 AODV 48 [0 ffffffff 4 800] ------- [4:255 -1:255 29 0] [0x2 2 1 [5 0] [2 4]] (REQUEST)
r 3.014504525 _7_ MAC  --- 0 AODV 48 [0 ffffffff 4 800] ------- [4:255 -1:255 29 0] [0x2 2 1 [5 0] [2 4]] (REQUEST)
r 3.014504525 _2_ MAC  --- 0 AODV 48 [0 ffffffff 4 800] ------- [4:255 -1:255 29 0] [0x2 2 1 [5 0] [2 4]] (REQUEST)
r 3.014504604 _6_ MAC  --- 0 AODV 48 [0 ffffffff 4 800] ------- [4:255 -1:255 29 0] [0x2 2 1 [5 0] [2 4]] (REQUEST)
r 3.014529330 _1_ RTR  --- 0 AODV 48 [0 ffffffff 4 800] ------- [4:255 -1:255 29 0] [0x2 2 1 [5 0] [2 4]] (REQUEST)
r 3.014529330 _3_ RTR  --- 0 AODV 48 [0 ffffffff 4 800] ------- [4:255 -1:255 29 0] [0x2 2 1 [5 0] [2 4]] (REQUEST)
r 3.014529525 _7_ RTR  --- 0 AODV 48 [0 ffffffff 4 800] ------- [4:255 -1:255 29 0] [0x2 2 1 [5 0] [2 4]] (REQUEST)
r 3.014529525 _2_ RTR  --- 0 AODV 48 [0 ffffffff 4 800] ------- [4:255 -1:255 29 0] [0x2 2 1 [5 0] [2 4]] (REQUEST)
r 3.014529604 _6_ RTR  --- 0 AODV 48 [0 ffffffff 4 800] ------- [4:255 -1:255 29 0] [0x2 2 1 [5 0] [2 4]] (REQUEST)
s 3.014854330 _1_ MAC  --- 0 AODV 106 [0 ffffffff 1 800] ------- [1:255 -1:255 29 0] [0x2 2 1 [5 0] [2 4]] (REQUEST)
r 3.015702802 _4_ MAC  --- 0 AODV 48 [0 ffffffff 1 800] ------- [1:255 -1:255 29 0] [0x2 2 1 [5 0] [2 4]] (REQUEST)
r 3.015702802 _2_ MAC  --- 0 AODV 48 [0 ffffffff 1 800] ------- [1:255 -1:255 29 0] [0x2 2 1 [5 0] [2 4]] (REQUEST)
r 3.015702997 _0_ MAC  --- 0 AODV 48 [0 ffffffff 1 800] ------- [1:255 -1:255 29 0] [0x2 2 1 [5 0] [2 4]] (REQUEST)
r 3.015702997 _3_ MAC  --- 0 AODV 48 [0 ffffffff 1 800] ------- [1:255 -1:255 29 0] [0x2 2 1 [5 0] [2 4]] (REQUEST)
r 3.015727802 _4_ RTR  --- 0 AODV 48 [0 ffffffff 1 800] ------- [1:255 -1:255 29 0] [0x2 2 1 [5 0] [2 4]] (REQUEST)
r 3.015727802 _2_ RTR  --- 0 AODV 48 [0 ffffffff 1 800] ------- [1:255 -1:255 29 0] [0x2 2 1 [5 0] [2 4]] (REQUEST)
r 3.015727997 _0_ RTR  --- 0 AODV 48 [0 ffffffff 1 800] ------- [1:255 -1:255 29 0] [0x2 2 1 [5 0] [2 4]] (REQUEST)
r 3.015727997 _3_ RTR  --- 0 AODV 48 [0 ffffffff 1 800] ------- [1:255 -1:255 29 0] [0x2 2 1 [5 0] [2 4]] (REQUEST)
s 3.016177330 _6_ MAC  --- 0 AODV 106 [0 ffffffff 6 800] ------- [6:255 -1:255 29 0] [0x2 2 1 [5 0] [2 4]] (REQUEST)
r 3.017025664 _3_ MAC  --- 0 AODV 48 [0 ffffffff 6 800] ------- [6:255 -1:255 29 0] [0x2 2 1 [5 0] [2 4]] (REQUEST)
r 3.017026076 _4_ MAC  --- 0 AODV 48 [0 ffffffff 6 800] ------- [6:255 -1:255 29 0] [0x2 2 1 [5 0] [2 4]] (REQUEST)
r 3.017026076 _2_ MAC  --- 0 AODV 48 [0 ffffffff 6 800] ------- [6:255 -1:255 29 0] [0x2 2 1 [5 0] [2 4]] (REQUEST)
r 3.017050664 _3_ RTR  --- 0 AODV 48 [0 ffffffff 6 800] ------- [6:255 -1:255 29 0] [0x2 2 1 [5 0] [2 4]] (REQUEST)
r 3.017051076 _4_ RTR  --- 0 AODV 48 [0 ffffffff 6 800] ------- [6:255 -1:255 29 0] [0x2 2 1 [5 0] [2 4]] (REQUEST)
r 3.017051076 _2_ RTR  --- 0 AODV 48 [0 ffffffff 6 800] ------- [6:255 -1:255 29 0] [0x2 2 1 [5 0] [2 4]] (REQUEST)
s 3.017886153 _7_ RTR  --- 0 AODV 48 [0 ffffffff 4 800] ------- [7:255 -1:255 28 0] [0x2 3 1 [5 0] [2 4]] (REQUEST)
s 3.018441153 _7_ MAC  --- 0 AODV 106 [0 ffffffff 7 800] ------- [7:255 -1:255 28 0] [0x2 3 1 [5 0] [2 4]] (REQUEST)
r 3.019289820 _4_ MAC  --- 0 AODV 48 [0 ffffffff 7 800] ------- [7:255 -1:255 28 0] [0x2 3 1 [5 0] [2 4]] (REQUEST)
r 3.019314820 _4_ RTR  --- 0 AODV 48 [0 ffffffff 7 800] ------- [7:255 -1:255 28 0] [0x2 3 1 [5 0] [2 4]] (REQUEST)
s 3.022414236 _0_ RTR  --- 0 AODV 48 [0 ffffffff 1 800] ------- [0:255 -1:255 28 0] [0x2 3 1 [5 0] [2 4]] (REQUEST)
s 3.022709236 _0_ MAC  --- 0 AODV 106 [0 ffffffff 0 800] ------- [0:255 -1:255 28 0] [0x2 3 1 [5 0] [2 4]] (REQUEST)
r 3.023557902 _1_ MAC  --- 0 AODV 48 [0 ffffffff 0 800] ------- [0:255 -1:255 28 0] [0x2 3 1 [5 0] [2 4]] (REQUEST)
r 3.023582902 _1_ RTR  --- 0 AODV 48 [0 ffffffff 0 800] ------- [0:255 -1:255 28 0] [0x2 3 1 [5 0] [2 4]] (REQUEST)
s 4.000000000 _3_ AGT  --- 2 cbr 512 [0 0 0 0] ------- [3:0 6:0 32 0] [0] 0 1
r 4.000000000 _3_ RTR  --- 2 cbr 512 [0 0 0 0] ------- [3:0 6:0 32 0] [0] 0 1
s 4.000000000 _3_ RTR  --- 0 AODV 48 [0 0 0 0] ------- [3:255 -1:255 30 0] [0x2 1 1 [6 0] [3 4]] (REQUEST)
s 4.000295000 _3_ MAC  --- 0 AODV 106 [0 ffffffff 3 800] ------- [3:255 -1:255 30 0] [0x2 1 1 [6 0] [3 4]] (REQUEST)
r 4.001143333 _6_ MAC  --- 0 AODV 48 [0 ffffffff 3 800] ------- [3:255 -1:255 30 0] [0x2 1 1 [6 0] [3 4]] (REQUEST)
r 4.001143471 _4_ MAC  --- 0 AODV 48 [0 ffffffff 3 800] ------- [3:255 -1:255 30 0] [0x2 1 1 [6 0] [3 4]] (REQUEST)
r 4.001143471 _2_ MAC  --- 0 AODV 48 [0 ffffffff 3 800] ------- [3:255 -1:255 30 0] [0x2 1 1 [6 0] [3 4]] (REQUEST)
r 4.001143667 _1_ MAC  --- 0 AODV 48 [0 ffffffff 3 800] ------- [3:255 -1:255 30 0] [0x2 1 1 [6 0] [3 4]] (REQUEST)
r 4.001168333 _6_ RTR  --- 0 AODV 48 [0 ffffffff 3 800] ------- [3:255 -1:255 30 0] [0x2 1 1 [6 0] [3 4]] (REQUEST)
s 4.001168333 _6_ RTR  --- 0 AODV 44 [0 0 0 0] ------- [6:255 3:255 30 3] [0x4 1 [6 4] 10.000000] (REPLY)
r 4.001168471 _4_ RTR  --- 0 AODV 48 [0 ffffffff 3 800] ------- [3:255 -1:255 30 0] [0x2 1 1 [6 0] [3 4]] (REQUEST)
r 4.001168471 _2_ RTR  --- 0 AODV 48 [0 ffffffff 3 800] ------- [3:255 -1:255 30 0] [0x2 1 1 [6 0] [3 4]] (REQUEST)
r 4.001168667 _1_ RTR  --- 0 AODV 48 [0 ffffffff 3 800] ------- [3:255 -1:255 30 0] [0x2 1 1 [6 0] [3 4]] (REQUEST)
s 4.001358309 _1_ AGT  --- 3 cbr 512 [0 0 0 0] ------- [1:0 0:0 32 0] [1] 0 1
r 4.001358309 _1_ RTR  --- 3 cbr 512 [0 0 0 0] ------- [1:0 0:0 32 0] [1] 0 1
s 4.001358309 _1_ RTR  --- 3 cbr 532 [0 0 0 0] ------- [1:0 0:0 30 0] [1] 0 1
s 4.001453309 _1_ MAC  --- 0 RTS 44 [14ee 0 1 0] 
r 4.001805976 _0_ MAC  --- 0 RTS 44 [14ee 0 1 0] 
s 4.001815976 _0_ MAC  --- 0 CTS 38 [13b4 1 0 0] 
r 4.002120642 _1_ MAC  --- 0 CTS 38 [13b4 1 0 0] 
s 4.002615642 _6_ MAC  --- 0 ARP 86 [0 ffffffff 6 806] ------- [REQUEST 6/6 0/3]
s 4.003030614 _2_ RTR  --- 0 AODV 48 [0 ffffffff 3 800] ------- [2:255 -1:255 29 0] [0x2 2 1 [6 0] [3 4]] (REQUEST)
r 4.003303976 _3_ MAC  --- 0 ARP 28 [0 ffffffff 6 806] ------- [REQUEST 6/6 0/3]
r 4.003304388 _4_ MAC  --- 0 ARP 28 [0 ffffffff 6 806] ------- [REQUEST 6/6 0/3]
r 4.003304388 _2_ MAC  --- 0 ARP 28 [0 ffffffff 6 806] ------- [REQUEST 6/6 0/3]
s 4.004441641 _4_ RTR  --- 0 AODV 48 [0 ffffffff 3 800] ------- [4:255 -1:255 29 0] [0x2 2 1 [6 0] [3 4]] (REQUEST)
D 4.007168642 _1_ MAC  DOS 3 cbr 590 [13a 0 1 800] ------- [1:0 0:0 30 0] [1] 0 1
s 4.007333976 _3_ MAC  --- 0 RTS 44 [52e 6 3 0] 
r 4.007686309 _6_ MAC  --- 0 RTS 44 [52e 6 3 0] 
s 4.007696309 _6_ MAC  --- 0 CTS 38 [3f4 3 0 0] 
r 4.008000642 _3_ MAC  --- 0 CTS 38 [3f4 3 0 0] 
s 4.008010642 _3_ MAC  --- 0 ARP 86 [13a 6 3 806] ------- [REPLY 3/3 6/6]
r 4.008698976 _6_ MAC  --- 0 ARP 28 [13a 6 3 806] ------- [REPLY 3/3 6/6]
s 4.008708976 _6_ MAC  --- 0 ACK 38 [0 3 0 0] 
r 4.009013309 _3_ MAC  --- 0 ACK 38 [0 3 0 0] 
s 4.009018538 _1_ RTR  --- 0 AODV 48 [0 ffffffff 3 800] ------- [1:255 -1:255 29 0] [0x2 2 1 [6 0] [3 4]] (REQUEST)
s 4.009243721 _4_ MAC  --- 0 AODV 106 [0 ffffffff 4 800] ------- [4:255 -1:255 29 0] [0x2 2 1 [6 0] [3 4]] (REQUEST)
r 4.010092192 _1_ MAC  --- 0 AODV 48 [0 ffffffff 4 800] ------- [4:255 -1:255 29 0] [0x2 2 1 [6 0] [3 4]] (REQUEST)
r 4.010092192 _3_ MAC  --- 0 AODV 48 [0 ffffffff 4 800] ------- [4:255 -1:255 29 0] [0x2 2 1 [6 0] [3 4]] (REQUEST)
r 4.010092388 _7_ MAC  --- 0 AODV 48 [0 ffffffff 4 800] ------- [4:255 -1:255 29 0] [0x2 2 1 [6 0] [3 4]] (REQUEST)
r 4.010092388 _2_ MAC  --- 0 AODV 48 [0 ffffffff 4 800] ------- [4:255 -1:255 29 0] [0x2 2 1 [6 0] [3 4]] (REQUEST)
r 4.010092466 _6_ MAC  --- 0 AODV 48 [0 ffffffff 4 800] ------- [4:255 -1:255 29 0] [0x2 2 1 [6 0] [3 4]] (REQUEST)
r 4.010117192 _1_ RTR  --- 0 AODV 48 [0 ffffffff 4 800] ------- [4:255 -1:255 29 0] [0x2 2 1 [6 0] [3 4]] (REQUEST)
r 4.010117192 _3_ RTR  --- 0 AODV 48 [0 ffffffff 4 800] ------- [4:255 -1:255 29 0] [0x2 2 1 [6 0] [3 4]] (REQUEST)
r 4.010117388 _7_ RTR  --- 0 AODV 48 [0 ffffffff 4 800] ------- [4:255 -1:255 29 0] [0x2 2 1 [6 0] [3 4]] (REQUEST)
r 4.010117388 _2_ RTR  --- 0 AODV 48 [0 ffffffff 4 800] ------- [4:255 -1:255 29 0] [0x2 2 1 [6 0] [3 4]] (REQUEST)
r 4.010117466 _6_ RTR  --- 0 AODV 48 [0 ffffffff 4 800] ------- [4:255 -1:255 29 0] [0x2 2 1 [6 0] [3 4]] (REQUEST)
s 4.010322388 _2_ MAC  --- 0 AODV 106 [0 ffffffff 2 800] ------- [2:255 -1:255 29 0] [0x2 2 1 [6 0] [3 4]] (REQUEST)
r 4.011170859 _3_ MAC  --- 0 AODV 48 [0 ffffffff 2 800] ------- [2:255 -1:255 29 0] [0x2 2 1 [6 0] [3 4]] (REQUEST)
r 4.011170859 _1_ MAC  --- 0 AODV 48 [0 ffffffff 2 800] ------- [2:255 -1:255 29 0] [0x2 2 1 [6 0] [3 4]] (REQUEST)
r 4.011171054 _4_ MAC  --- 0 AODV 48 [0 ffffffff 2 800] ------- [2:255 -1:255 29 0] [0x2 2 1 [6 0] [3 4]] (REQUEST)
r 4.011171054 _5_ MAC  --- 0 AODV 48 [0 ffffffff 2 800] ------- [2:255 -1:255 29 0] [0x2 2 1 [6 0] [3 4]] (REQUEST)
r 4.011171133 _6_ MAC  --- 0 AODV 48 [0 ffffffff 2 800] ------- [2:255 -1:255 29 0] [0x2 2 1 [6 0] [3 4]] (REQUEST)
r 4.011195859 _3_ RTR  --- 0 AODV 48 [0 ffffffff 2 800] ------- [2:255 -1:255 29 0] [0x2 2 1 [6 0] [3 4]] (REQUEST)
r 4.011195859 _1_ RTR  --- 0 AODV 48 [0 ffffffff 2 800] ------- [2:255 -1:255 29 0] [0x2 2 1 [6 0] [3 4]] (REQUEST)
r 4.011196054 _4_ RTR  --- 0 AODV 48 [0 ffffffff 2 800] ------- [2:255 -1:255 29 0] [0x2 2 1 [6 0] [3 4]] (REQUEST)
r 4.011196054 _5_ RTR  --- 0 AODV 48 [0 ffffffff 2 800] ------- [2:255 -1:255 29 0] [0x2 2 1 [6 0] [3 4]] (REQUEST)
r 4.011196133 _6_ RTR  --- 0 AODV 48 [0 ffffffff 2 800] ------- [2:255 -1:255 29 0] [0x2 2 1 [6 0] [3 4]] (REQUEST)
s 4.011240859 _1_ MAC  --- 0 AODV 106 [0 ffffffff 1 800] ------- [1:255 -1:255 29 0] [0x2 2 1 [6 0] [3 4]] (REQUEST)
r 4.012089330 _4_ MAC  --- 0 AODV 48 [0 ffffffff 1 800] ------- [1:255 -1:255 29 0] [0x2 2 1 [6 0] [3 4]] (REQUEST)
r 4.012089330 _2_ MAC  --- 0 AODV 48 [0 ffffffff 1 800] ------- [1:255 -1:255 29 0] [0x2 2 1 [6 0] [3 4]] (REQUEST)
r 4.012089526 _0_ MAC  --- 0 AODV 48 [0 ffffffff 1 800] ------- [1:255 -1:255 29 0] [0x2 2 1 [6 0] [3 4]] (REQUEST)
r 4.012089526 _3_ MAC  --- 0 AODV 48 [0 ffffffff 1 800] ------- [1:255 -1:255 29 0] [0x2 2 1 [6 0] [3 4]] (REQUEST)
r 4.012114330 _4_ RTR  --- 0 AODV 48 [0 ffffffff 1 800] ------- [1:255 -1:255 29 0] [0x2 2 1 [6 0] [3 4]] (REQUEST)
r 4.012114330 _2_ RTR  --- 0 AODV 48 [0 ffffffff 1 800] ------- [1:255 -1:255 29 0] [0x2 2 1 [6 0] [3 4]] (REQUEST)
r 4.012114526 _0_ RTR  --- 0 AODV 48 [0 ffffffff 1 800] ------- [1:255 -1:255 29 0] [0x2 2 1 [6 0] [3 4]] (REQUEST)
r 4.012114526 _3_ RTR  --- 0 AODV 48 [0 ffffffff 1 800] ------- [1:255 -1:255 29 0] [0x2 2 1 [6 0] [3 4]] (REQUEST)
s 4.012583859 _6_ MAC  --- 0 RTS 44 [5ae 3 6 0] 
r 4.012936192 _3_ MAC  --- 0 RTS 44 [5ae 3 6 0] 
s 4.012946192 _3_ MAC  --- 0 CTS 38 [474 6 0 0] 
r 4.013250526 _6_ MAC  --- 0 CTS 38 [474 6 0 0] 
s 4.013260526 _6_ MAC  --- 0 AODV 102 [13a 3 6 800] ------- [6:255 3:255 30 3] [0x4 1 [6 4] 10.000000] (REPLY)
r 4.014076859 _3_ MAC  --- 0 AODV 44 [13a 3 6 800] ------- [6:255 3:255 30 3] [0x4 1 [6 4] 10.000000] (REPLY)
s 4.014086859 _3_ MAC  --- 0 ACK 38 [0 6 0 0] 
r 4.014101859 _3_ RTR  --- 0 AODV 44 [13a 3 6 800] ------- [6:255 3:255 30 3] [0x4 1 [6 4] 10.000000] (REPLY)
s 4.014101859 _3_ RTR  --- 2 cbr 532 [0 0 0 0] ------- [3:0 6:0 30 6] [0] 0 1
s 4.014329588 _7_ RTR  --- 0 AODV 48 [0 ffffffff 4 800] ------- [7:255 -1:255 28 0] [0x2 3 1 [6 0] [3 4]] (REQUEST)
r 4.014391192 _6_ MAC  --- 0 ACK 38 [0 6 0 0] 
s 4.014925913 _7_ MAC  --- 0 AODV 106 [0 ffffffff 7 800] ------- [7:255 -1:255 28 0] [0x2 3 1 [6 0] [3 4]] (REQUEST)
r 4.015774580 _4_ MAC  --- 0 AODV 48 [0 ffffffff 7 800] ------- [7:255 -1:255 28 0] [0x2 3 1 [6 0] [3 4]] (REQUEST)
r 4.015799580 _4_ RTR  --- 0 AODV 48 [0 ffffffff 7 800] ------- [7:255 -1:255 28 0] [0x2 3 1 [6 0] [3 4]] (REQUEST)
s 4.016308967 _3_ MAC  --- 0 RTS 44 [14ee 6 3 0] 
r 4.016661301 _6_ MAC  --- 0 RTS 44 [14ee 6 3 0] 
s 4.016671301 _6_ MAC  --- 0 CTS 38 [13b4 3 0 0] 
r 4.016975634 _3_ MAC  --- 0 CTS 38 [13b4 3 0 0] 
s 4.016985634 _3_ MAC  --- 2 cbr 590 [13a 6 3 800] ------- [3:0 6:0 30 6] [0] 0 1
s 4.019340056 _5_ RTR  --- 0 AODV 48 [0 ffffffff 2 800] ------- [5:255 -1:255 28 0] [0x2 3 1 [6 0] [3 4]] (REQUEST)
s 4.019394943 _0_ RTR  --- 0 AODV 48 [0 ffffffff 1 800] ------- [0:255 -1:255 28 0] [0x2 3 1 [6 0] [3 4]] (REQUEST)
r 4.021705967 _6_ MAC  --- 2 cbr 532 [13a 6 3 800] ------- [3:0 6:0 30 6] [0] 1 1
s 4.021715967 _6_ MAC  --- 0 ACK 38 [0 3 0 0] 
r 4.021730967 _6_ AGT  --- 2 cbr 532 [13a 6 3 800] ------- [3:0 6:0 30 6] [0] 1 1
r 4.022020301 _3_ MAC  --- 0 ACK 38 [0 3 0 0] 
s 4.022555169 _5_ MAC  --- 0 AODV 106 [0 ffffffff 5 800] ------- [5:255 -1:255 28 0] [0x2 3 1 [6 0] [3 4]] (REQUEST)
r 4.023403836 _2_ MAC  --- 0 AODV 48 [0 ffffffff 5 800] ------- [5:255 -1:255 28 0] [0x2 3 1 [6 0] [3 4]] (REQUEST)
r 4.023428836 _2_ RTR  --- 0 AODV 48 [0 ffffffff 5 800] ------- [5:255 -1:255 28 0] [0x2 3 1 [6 0] [3 4]] (REQUEST)
s 4.024298583 _0_ MAC  --- 0 AODV 106 [0 ffffffff 0 800] ------- [0:255 -1:255 28 0] [0x2 3 1 [6 0] [3 4]] (REQUEST)
r 4.025147250 _1_ MAC  --- 0 AODV 48 [0 ffffffff 0 800] ------- [0:255 -1:255 28 0] [0x2 3 1 [6 0] [3 4]] (REQUEST)
r 4.025172250 _1_ RTR  --- 0 AODV 48 [0 ffffffff 0 800] ------- [0:255 -1:255 28 0] [0x2 3 1 [6 0] [3 4]] (REQUEST)
s 6.000000000 _4_ AGT  --- 4 cbr 512 [0 0 0 0] ------- [4:0 7:0 32 0] [0] 0 1
r 6.000000000 _4_ RTR  --- 4 cbr 512 [0 0 0 0] ------- [4:0 7:0 32 0] [0] 0 1
s 6.000000000 _4_ RTR  --- 0 AODV 48 [0 0 0 0] ------- [4:255 -1:255 30 0] [0x2 1 1 [7 0] [4 4]] (REQUEST)
s 6.000375000 _4_ MAC  --- 0 AODV 106 [0 ffffffff 4 800] ------- [4:255 -1:255 30 0] [0x2 1 1 [7 0] [4 4]] (REQUEST)
r 6.001223471 _1_ MAC  --- 0 AODV 48 [0 ffffffff 4 800] ------- [4:255 -1:255 30 0] [0x2 1 1 [7 0] [4 4]] (REQUEST)
r 6.001223471 _3_ MAC  --- 0 AODV 48 [0 ffffffff 4 800] ------- [4:255 -1:255 30 0] [0x2 1 1 [7 0] [4 4]] (REQUEST)
r 6.001223667 _7_ MAC  --- 0 AODV 48 [0 ffffffff 4 800] ------- [4:255 -1:255 30 0] [0x2 1 1 [7 0] [4 4]] (REQUEST)
r 6.001223667 _2_ MAC  --- 0 AODV 48 [0 ffffffff 4 800] ------- [4:255 -1:255 30 0] [0x2 1 1 [7 0] [4 4]] (REQUEST)
r 6.001223745 _6_ MAC  --- 0 AODV 48 [0 ffffffff 4 800] ------- [4:255 -1:255 30 0] [0x2 1 1 [7 0] [4 4]] (REQUEST)
r 6.001248471 _1_ RTR  --- 0 AODV 48 [0 ffffffff 4 800] ------- [4:255 -1:255 30 0] [0x2 1 1 [7 0] [4 4]] (REQUEST)
r 6.001248471 _3_ RTR  --- 0 AODV 48 [0 ffffffff 4 800] ------- [4:255 -1:255 30 0] [0x2 1 1 [7 0] [4 4]] (REQUEST)
r 6.001248667 _7_ RTR  --- 0 AODV 48 [0 ffffffff 4 800] ------- [4:255 -1:255 30 0] [0x2 1 1 [7 0] [4 4]] (REQUEST)
r 6.001248667 _2_ RTR  --- 0 AODV 48 [0 ffffffff 4 800] ------- [4:255 -1:255 30 0] [0x2 1 1 [7 0] [4 4]] (REQUEST)
s 6.001248667 _7_ RTR  --- 0 AODV 44 [0 0 0 0] ------- [7:255 4:255 30 4] [0x4 1 [7 4] 10.000000] (REPLY)
r 6.001248745 _6_ RTR  --- 0 AODV 48 [0 ffffffff 4 800] ------- [4:255 -1:255 30 0] [0x2 1 1 [7 0] [4 4]] (REQUEST)
s 6.001250217 _3_ RTR  --- 0 AODV 48 [0 ffffffff 4 800] ------- [3:255 -1:255 29 0] [0x2 2 1 [7 0] [4 4]] (REQUEST)
s 6.001463667 _7_ MAC  --- 0 ARP 86 [0 ffffffff 7 806] ------- [REQUEST 7/7 0/4]
s 6.002082966 _2_ RTR  --- 0 AODV 48 [0 ffffffff 4 800] ------- [2:255 -1:255 29 0] [0x2 2 1 [7 0] [4 4]] (REQUEST)
r 6.002152333 _4_ MAC  --- 0 ARP 28 [0 ffffffff 7 806] ------- [REQUEST 7/7 0/4]
s 6.002362333 _4_ MAC  --- 0 RTS 44 [52e 7 4 0] 
r 6.002715000 _7_ MAC  --- 0 RTS 44 [52e 7 4 0] 
s 6.002725000 _7_ MAC  --- 0 CTS 38 [3f4 4 0 0] 
r 6.003029667 _4_ MAC  --- 0 CTS 38 [3f4 4 0 0] 
s 6.003039667 _4_ MAC  --- 0 ARP 86 [13a 7 4 806] ------- [REPLY 4/4 7/7]
r 6.003728333 _7_ MAC  --- 0 ARP 28 [13a 7 4 806] ------- [REPLY 4/4 7/7]
s 6.003738333 _7_ MAC  --- 0 ACK 38 [0 4 0 0] 
r 6.004043000 _4_ MAC  --- 0 ACK 38 [0 4 0 0] 
s 6.004252333 _7_ MAC  --- 0 RTS 44 [5ae 4 7 0] 
s 6.004570890 _6_ RTR  --- 0 AODV 48 [0 ffffffff 4 800] ------- [6:255 -1:255 29 0] [0x2 2 1 [7 0] [4 4]] (REQUEST)
r 6.004605000 _4_ MAC  --- 0 RTS 44 [5ae 4 7 0] 
s 6.004615000 _4_ MAC  --- 0 CTS 38 [474 7 0 0] 
r 6.004919667 _7_ MAC  --- 0 CTS 38 [474 7 0 0] 
s 6.004929667 _7_ MAC  --- 0 AODV 102 [13a 4 7 800] ------- [7:255 4:255 30 4] [0x4 1 [7 4] 10.000000] (REPLY)
s 6.004984510 _1_ RTR  --- 0 AODV 48 [0 ffffffff 4 800] ------- [1:255 -1:255 29 0] [0x2 2 1 [7 0] [4 4]] (REQUEST)
r 6.005746333 _4_ MAC  --- 0 AODV 44 [13a 4 7 800] ------- [7:255 4:255 30 4] [0x4 1 [7 4] 10.000000] (REPLY)
s 6.005756333 _4_ MAC  --- 0 ACK 38 [0 7 0 0] 
r 6.005771333 _4_ RTR  --- 0 AODV 44 [13a 4 7 800] ------- [7:255 4:255 30 4] [0x4 1 [7 4] 10.000000] (REPLY)
s 6.005771333 _4_ RTR  --- 4 cbr 532 [0 0 0 0] ------- [4:0 7:0 30 7] [0] 0 1
r 6.006061000 _7_ MAC  --- 0 ACK 38 [0 7 0 0] 
s 6.006160869 _6_ MAC  --- 0 AODV 106 [0 ffffffff 6 800] ------- [6:255 -1:255 29 0] [0x2 2 1 [7 0] [4 4]] (REQUEST)
r 6.007009202 _3_ MAC  --- 0 AODV 48 [0 ffffffff 6 800] ------- [6:255 -1:255 29 0] [0x2 2 1 [7 0] [4 4]] (REQUEST)
r 6.007009614 _4_ MAC  --- 0 AODV 48 [0 ffffffff 6 800] ------- [6:255 -1:255 29 0] [0x2 2 1 [7 0] [4 4]] (REQUEST)
r 6.007009614 _2_ MAC  --- 0 AODV 48 [0 ffffffff 6 800] ------- [6:255 -1:255 29 0] [0x2 2 1 [7 0] [4 4]] (REQUEST)