v testName phase
+ 1.00304 2 3 tcp 40 ------- 1 1.0 3.1 0 0
- 1.00304 2 3 tcp 40 ------- 1 1.0 3.1 0 0
r 1.10344 2 3 tcp 40 ------- 1 1.0 3.1 0 0
+ 1.20384 2 1 ack 40 ------- 1 3.1 1.0 0 1
- 1.20384 2 1 ack 40 ------- 1 3.1 1.0 0 1
r 1.20688 2 1 ack 40 ------- 1 3.1 1.0 0 1
+ 1.21088 2 3 tcp 1000 ------- 1 1.0 3.1 1 2
- 1.21088 2 3 tcp 1000 ------- 1 1.0 3.1 1 2
+ 1.21188 2 3 tcp 1000 ------- 1 1.0 3.1 2 3
- 1.22088 2 3 tcp 1000 ------- 1 1.0 3.1 2 3
r 1.32088 2 3 tcp 1000 ------- 1 1.0 3.1 1 2
r 1.33088 2 3 tcp 1000 ------- 1 1.0 3.1 2 3
+ 1.42128 2 1 ack 40 ------- 1 3.1 1.0 1 4
- 1.42128 2 1 ack 40 ------- 1 3.1 1.0 1 4
r 1.42432 2 1 ack 40 ------- 1 3.1 1.0 1 4
+ 1.42832 2 3 tcp 1000 ------- 1 1.0 3.1 3 6
- 1.42832 2 3 tcp 1000 ------- 1 1.0 3.1 3 6
+ 1.42932 2 3 tcp 1000 ------- 1 1.0 3.1 4 7
+ 1.43128 2 1 ack 40 ------- 1 3.1 1.0 2 5
- 1.43128 2 1 ack 40 ------- 1 3.1 1.0 2 5
r 1.43432 2 1 ack 40 ------- 1 3.1 1.0 2 5
- 1.43832 2 3 tcp 1000 ------- 1 1.0 3.1 4 7
+ 1.43832 2 3 tcp 1000 ------- 1 1.0 3.1 5 8
+ 1.43932 2 3 tcp 1000 ------- 1 1.0 3.1 6 9
- 1.44832 2 3 tcp 1000 ------- 1 1.0 3.1 5 8
- 1.45832 2 3 tcp 1000 ------- 1 1.0 3.1 6 9
r 1.53832 2 3 tcp 1000 ------- 1 1.0 3.1 3 6
r 1.54832 2 3 tcp 1000 ------- 1 1.0 3.1 4 7
r 1.55832 2 3 tcp 1000 ------- 1 1.0 3.1 5 8
r 1.56832 2 3 tcp 1000 ------- 1 1.0 3.1 6 9
+ 1.63872 2 1 ack 40 ------- 1 3.1 1.0 3 10
- 1.63872 2 1 ack 40 ------- 1 3.1 1.0 3 10
r 1.64176 2 1 ack 40 ------- 1 3.1 1.0 3 10
+ 1.64576 2 3 tcp 1000 ------- 1 1.0 3.1 7 14
- 1.64576 2 3 tcp 1000 ------- 1 1.0 3.1 7 14
+ 1.64676 2 3 tcp 1000 ------- 1 1.0 3.1 8 15
+ 1.64872 2 1 ack 40 ------- 1 3.1 1.0 4 11
- 1.64872 2 1 ack 40 ------- 1 3.1 1.0 4 11
r 1.65176 2 1 ack 40 ------- 1 3.1 1.0 4 11
- 1.65576 2 3 tcp 1000 ------- 1 1.0 3.1 8 15
+ 1.65576 2 3 tcp 1000 ------- 1 1.0 3.1 9 16
+ 1.65676 2 3 tcp 1000 ------- 1 1.0 3.1 10 17
+ 1.65872 2 1 ack 40 ------- 1 3.1 1.0 5 12
- 1.65872 2 1 ack 40 ------- 1 3.1 1.0 5 12
r 1.66176 2 1 ack 40 ------- 1 3.1 1.0 5 12
- 1.66576 2 3 tcp 1000 ------- 1 1.0 3.1 9 16
+ 1.66576 2 3 tcp 1000 ------- 1 1.0 3.1 11 18
+ 1.66676 2 3 tcp 1000 ------- 1 1.0 3.1 12 19
+ 1.66872 2 1 ack 40 ------- 1 3.1 1.0 6 13
- 1.66872 2 1 ack 40 ------- 1 3.1 1.0 6 13
r 1.67176 2 1 ack 40 ------- 1 3.1 1.0 6 13
- 1.67576 2 3 tcp 1000 ------- 1 1.0 3.1 10 17
+ 1.67576 2 3 tcp 1000 ------- 1 1.0 3.1 13 20
+ 1.67676 2 3 tcp 1000 ------- 1 1.0 3.1 14 21
- 1.68576 2 3 tcp 1000 ------- 1 1.0 3.1 11 18
- 1.69576 2 3 tcp 1000 ------- 1 1.0 3.1 12 19
- 1.70576 2 3 tcp 1000 ------- 1 1.0 3.1 13 20
- 1.71576 2 3 tcp 1000 ------- 1 1.0 3.1 14 21
r 1.75576 2 3 tcp 1000 ------- 1 1.0 3.1 7 14
r 1.76576 2 3 tcp 1000 ------- 1 1.0 3.1 8 15
r 1.77576 2 3 tcp 1000 ------- 1 1.0 3.1 9 16
r 1.78576 2 3 tcp 1000 ------- 1 1.0 3.1 10 17
r 1.79576 2 3 tcp 1000 ------- 1 1.0 3.1 11 18
r 1.80576 2 3 tcp 1000 ------- 1 1.0 3.1 12 19
r 1.81576 2 3 tcp 1000 ------- 1 1.0 3.1 13 20
r 1.82576 2 3 tcp 1000 ------- 1 1.0 3.1 14 21
+ 1.85616 2 1 ack 40 ------- 1 3.1 1.0 7 22
- 1.85616 2 1 ack 40 ------- 1 3.1 1.0 7 22
r 1.8592 2 1 ack 40 ------- 1 3.1 1.0 7 22
+ 1.8632 2 3 tcp 1000 ------- 1 1.0 3.1 15 30
- 1.8632 2 3 tcp 1000 ------- 1 1.0 3.1 15 30
+ 1.8642 2 3 tcp 1000 ------- 1 1.0 3.1 16 31
+ 1.86616 2 1 ack 40 ------- 1 3.1 1.0 8 23
- 1.86616 2 1 ack 40 ------- 1 3.1 1.0 8 23
r 1.8692 2 1 ack 40 ------- 1 3.1 1.0 8 23
- 1.8732 2 3 tcp 1000 ------- 1 1.0 3.1 16 31
+ 1.8732 2 3 tcp 1000 ------- 1 1.0 3.1 17 32
+ 1.8742 2 3 tcp 1000 ------- 1 1.0 3.1 18 33
+ 1.87616 2 1 ack 40 ------- 1 3.1 1.0 9 24
- 1.87616 2 1 ack 40 ------- 1 3.1 1.0 9 24
r 1.8792 2 1 ack 40 ------- 1 3.1 1.0 9 24
- 1.8832 2 3 tcp 1000 ------- 1 1.0 3.1 17 32
+ 1.8832 2 3 tcp 1000 ------- 1 1.0 3.1 19 34
+ 1.8842 2 3 tcp 1000 ------- 1 1.0 3.1 20 35
+ 1.88616 2 1 ack 40 ------- 1 3.1 1.0 10 25
- 1.88616 2 1 ack 40 ------- 1 3.1 1.0 10 25
r 1.8892 2 1 ack 40 ------- 1 3.1 1.0 10 25
- 1.8932 2 3 tcp 1000 ------- 1 1.0 3.1 18 33
+ 1.8932 2 3 tcp 1000 ------- 1 1.0 3.1 21 36
+ 1.8942 2 3 tcp 1000 ------- 1 1.0 3.1 22 37
+ 1.89616 2 1 ack 40 ------- 1 3.1 1.0 11 26
- 1.89616 2 1 ack 40 ------- 1 3.1 1.0 11 26
r 1.8992 2 1 ack 40 ------- 1 3.1 1.0 11 26
- 1.9032 2 3 tcp 1000 ------- 1 1.0 3.1 19 34
+ 1.9032 2 3 tcp 1000 ------- 1 1.0 3.1 23 38
+ 1.9042 2 3 tcp 1000 ------- 1 1.0 3.1 24 39
+ 1.90616 2 1 ack 40 ------- 1 3.1 1.0 12 27
- 1.90616 2 1 ack 40 ------- 1 3.1 1.0 12 27
r 1.9092 2 1 ack 40 ------- 1 3.1 1.0 12 27
- 1.9132 2 3 tcp 1000 ------- 1 1.0 3.1 20 35
+ 1.9132 2 3 tcp 1000 ------- 1 1.0 3.1 25 40
+ 1.9142 2 3 tcp 1000 ------- 1 1.0 3.1 26 41
+ 1.91616 2 1 ack 40 ------- 1 3.1 1.0 13 28
- 1.91616 2 1 ack 40 ------- 1 3.1 1.0 13 28
r 1.9192 2 1 ack 40 ------- 1 3.1 1.0 13 28
- 1.9232 2 3 tcp 1000 ------- 1 1.0 3.1 21 36
+ 1.9232 2 3 tcp 1000 ------- 1 1.0 3.1 27 42
+ 1.9242 2 3 tcp 1000 ------- 1 1.0 3.1 28 43
+ 1.92616 2 1 ack 40 ------- 1 3.1 1.0 14 29
- 1.92616 2 1 ack 40 ------- 1 3.1 1.0 14 29
r 1.9292 2 1 ack 40 ------- 1 3.1 1.0 14 29
- 1.9332 2 3 tcp 1000 ------- 1 1.0 3.1 22 37
+ 1.9332 2 3 tcp 1000 ------- 1 1.0 3.1 29 44
+ 1.9342 2 3 tcp 1000 ------- 1 1.0 3.1 30 45
- 1.9432 2 3 tcp 1000 ------- 1 1.0 3.1 23 38
- 1.9532 2 3 tcp 1000 ------- 1 1.0 3.1 24 39
- 1.9632 2 3 tcp 1000 ------- 1 1.0 3.1 25 40
r 1.9732 2 3 tcp 1000 ------- 1 1.0 3.1 15 30
- 1.9732 2 3 tcp 1000 ------- 1 1.0 3.1 26 41
r 1.9832 2 3 tcp 1000 ------- 1 1.0 3.1 16 31
- 1.9832 2 3 tcp 1000 ------- 1 1.0 3.1 27 42
r 1.9932 2 3 tcp 1000 ------- 1 1.0 3.1 17 32
- 1.9932 2 3 tcp 1000 ------- 1 1.0 3.1 28 43
r 2.0032 2 3 tcp 1000 ------- 1 1.0 3.1 18 33
- 2.0032 2 3 tcp 1000 ------- 1 1.0 3.1 29 44
- 2.0132 2 3 tcp 1000 ------- 1 1.0 3.1 30 45
r 2.0132 2 3 tcp 1000 ------- 1 1.0 3.1 19 34
r 2.0232 2 3 tcp 1000 ------- 1 1.0 3.1 20 35
r 2.0332 2 3 tcp 1000 ------- 1 1.0 3.1 21 36
r 2.0432 2 3 tcp 1000 ------- 1 1.0 3.1 22 37
r 2.0532 2 3 tcp 1000 ------- 1 1.0 3.1 23 38
r 2.0632 2 3 tcp 1000 ------- 1 1.0 3.1 24 39
r 2.0732 2 3 tcp 1000 ------- 1 1.0 3.1 25 40
+ 2.0736 2 1 ack 40 ------- 1 3.1 1.0 15 46
- 2.0736 2 1 ack 40 ------- 1 3.1 1.0 15 46
r 2.07664 2 1 ack 40 ------- 1 3.1 1.0 15 46
+ 2.08064 2 3 tcp 1000 ------- 1 1.0 3.1 31 57
- 2.08064 2 3 tcp 1000 ------- 1 1.0 3.1 31 57
+ 2.08164 2 3 tcp 1000 ------- 1 1.0 3.1 32 58
r 2.0832 2 3 tcp 1000 ------- 1 1.0 3.1 26 41
+ 2.0836 2 1 ack 40 ------- 1 3.1 1.0 16 47
- 2.0836 2 1 ack 40 ------- 1 3.1 1.0 16 47
r 2.08664 2 1 ack 40 ------- 1 3.1 1.0 16 47
- 2.09064 2 3 tcp 1000 ------- 1 1.0 3.1 32 58
+ 2.09064 2 3 tcp 1000 ------- 1 1.0 3.1 33 60
+ 2.09164 2 3 tcp 1000 ------- 1 1.0 3.1 34 61
r 2.0932 2 3 tcp 1000 ------- 1 1.0 3.1 27 42
+ 2.0936 2 1 ack 40 ------- 1 3.1 1.0 17 48
- 2.0936 2 1 ack 40 ------- 1 3.1 1.0 17 48
r 2.09664 2 1 ack 40 ------- 1 3.1 1.0 17 48
- 2.10064 2 3 tcp 1000 ------- 1 1.0 3.1 33 60
+ 2.10064 2 3 tcp 1000 ------- 1 1.0 3.1 35 63
+ 2.10164 2 3 tcp 1000 ------- 1 1.0 3.1 36 64
r 2.1032 2 3 tcp 1000 ------- 1 1.0 3.1 28 43
+ 2.1036 2 1 ack 40 ------- 1 3.1 1.0 18 49
- 2.1036 2 1 ack 40 ------- 1 3.1 1.0 18 49
r 2.10664 2 1 ack 40 ------- 1 3.1 1.0 18 49
- 2.11064 2 3 tcp 1000 ------- 1 1.0 3.1 34 61
+ 2.11064 2 3 tcp 1000 ------- 1 1.0 3.1 37 66
+ 2.11164 2 3 tcp 1000 ------- 1 1.0 3.1 38 67
r 2.1132 2 3 tcp 1000 ------- 1 1.0 3.1 29 44
+ 2.1136 2 1 ack 40 ------- 1 3.1 1.0 19 50
- 2.1136 2 1 ack 40 ------- 1 3.1 1.0 19 50
r 2.11664 2 1 ack 40 ------- 1 3.1 1.0 19 50
- 2.12064 2 3 tcp 1000 ------- 1 1.0 3.1 35 63
+ 2.12064 2 3 tcp 1000 ------- 1 1.0 3.1 39 69
+ 2.12164 2 3 tcp 1000 ------- 1 1.0 3.1 40 70
r 2.1232 2 3 tcp 1000 ------- 1 1.0 3.1 30 45
+ 2.1236 2 1 ack 40 ------- 1 3.1 1.0 20 51
- 2.1236 2 1 ack 40 ------- 1 3.1 1.0 20 51
r 2.12664 2 1 ack 40 ------- 1 3.1 1.0 20 51
- 2.13064 2 3 tcp 1000 ------- 1 1.0 3.1 36 64
+ 2.13064 2 3 tcp 1000 ------- 1 1.0 3.1 41 72
+ 2.13164 2 3 tcp 1000 ------- 1 1.0 3.1 42 73
+ 2.1336 2 1 ack 40 ------- 1 3.1 1.0 21 52
- 2.1336 2 1 ack 40 ------- 1 3.1 1.0 21 52
r 2.13664 2 1 ack 40 ------- 1 3.1 1.0 21 52
- 2.14064 2 3 tcp 1000 ------- 1 1.0 3.1 37 66
+ 2.14064 2 3 tcp 1000 ------- 1 1.0 3.1 43 74
+ 2.14164 2 3 tcp 1000 ------- 1 1.0 3.1 44 75
+ 2.1436 2 1 ack 40 ------- 1 3.1 1.0 22 53
- 2.1436 2 1 ack 40 ------- 1 3.1 1.0 22 53
r 2.14664 2 1 ack 40 ------- 1 3.1 1.0 22 53
- 2.15064 2 3 tcp 1000 ------- 1 1.0 3.1 38 67
+ 2.15064 2 3 tcp 1000 ------- 1 1.0 3.1 45 76
+ 2.15164 2 3 tcp 1000 ------- 1 1.0 3.1 46 77
+ 2.1536 2 1 ack 40 ------- 1 3.1 1.0 23 54
- 2.1536 2 1 ack 40 ------- 1 3.1 1.0 23 54
r 2.15664 2 1 ack 40 ------- 1 3.1 1.0 23 54
- 2.16064 2 3 tcp 1000 ------- 1 1.0 3.1 39 69
+ 2.16064 2 3 tcp 1000 ------- 1 1.0 3.1 47 78
+ 2.16164 2 3 tcp 1000 ------- 1 1.0 3.1 48 79
+ 2.1636 2 1 ack 40 ------- 1 3.1 1.0 24 55
- 2.1636 2 1 ack 40 ------- 1 3.1 1.0 24 55
r 2.16664 2 1 ack 40 ------- 1 3.1 1.0 24 55
- 2.17064 2 3 tcp 1000 ------- 1 1.0 3.1 40 70
+ 2.17064 2 3 tcp 1000 ------- 1 1.0 3.1 49 80
+ 2.17164 2 3 tcp 1000 ------- 1 1.0 3.1 50 81
+ 2.1736 2 1 ack 40 ------- 1 3.1 1.0 25 56
- 2.1736 2 1 ack 40 ------- 1 3.1 1.0 25 56
r 2.17664 2 1 ack 40 ------- 1 3.1 1.0 25 56
- 2.18064 2 3 tcp 1000 ------- 1 1.0 3.1 41 72
+ 2.18064 2 3 tcp 1000 ------- 1 1.0 3.1 51 82
+ 2.18164 2 3 tcp 1000 ------- 1 1.0 3.1 52 83
+ 2.1836 2 1 ack 40 ------- 1 3.1 1.0 26 59
- 2.1836 2 1 ack 40 ------- 1 3.1 1.0 26 59
r 2.18664 2 1 ack 40 ------- 1 3.1 1.0 26 59
- 2.19064 2 3 tcp 1000 ------- 1 1.0 3.1 42 73
r 2.19064 2 3 tcp 1000 ------- 1 1.0 3.1 31 57
+ 2.19064 2 3 tcp 1000 ------- 1 1.0 3.1 53 84
+ 2.19164 2 3 tcp 1000 ------- 1 1.0 3.1 54 85
+ 2.1936 2 1 ack 40 ------- 1 3.1 1.0 27 62
- 2.1936 2 1 ack 40 ------- 1 3.1 1.0 27 62
r 2.19664 2 1 ack 40 ------- 1 3.1 1.0 27 62
- 2.20064 2 3 tcp 1000 ------- 1 1.0 3.1 43 74
r 2.20064 2 3 tcp 1000 ------- 1 1.0 3.1 32 58
+ 2.20064 2 3 tcp 1000 ------- 1 1.0 3.1 55 87
+ 2.20164 2 3 tcp 1000 ------- 1 1.0 3.1 56 88
+ 2.2036 2 1 ack 40 ------- 1 3.1 1.0 28 65
- 2.2036 2 1 ack 40 ------- 1 3.1 1.0 28 65
r 2.20664 2 1 ack 40 ------- 1 3.1 1.0 28 65
- 2.21064 2 3 tcp 1000 ------- 1 1.0 3.1 44 75
r 2.21064 2 3 tcp 1000 ------- 1 1.0 3.1 33 60
+ 2.21064 2 3 tcp 1000 ------- 1 1.0 3.1 57 90
+ 2.21164 2 3 tcp 1000 ------- 1 1.0 3.1 58 91
+ 2.2136 2 1 ack 40 ------- 1 3.1 1.0 29 68
- 2.2136 2 1 ack 40 ------- 1 3.1 1.0 29 68
r 2.21664 2 1 ack 40 ------- 1 3.1 1.0 29 68
- 2.22064 2 3 tcp 1000 ------- 1 1.0 3.1 45 76
r 2.22064 2 3 tcp 1000 ------- 1 1.0 3.1 34 61
+ 2.22064 2 3 tcp 1000 ------- 1 1.0 3.1 59 93
+ 2.22164 2 3 tcp 1000 ------- 1 1.0 3.1 60 94
+ 2.2236 2 1 ack 40 ------- 1 3.1 1.0 30 71
- 2.2236 2 1 ack 40 ------- 1 3.1 1.0 30 71
r 2.22664 2 1 ack 40 ------- 1 3.1 1.0 30 71
- 2.23064 2 3 tcp 1000 ------- 1 1.0 3.1 46 77
r 2.23064 2 3 tcp 1000 ------- 1 1.0 3.1 35 63
+ 2.23064 2 3 tcp 1000 ------- 1 1.0 3.1 61 96
+ 2.23164 2 3 tcp 1000 ------- 1 1.0 3.1 62 97
d 2.23164 2 3 tcp 1000 ------- 1 1.0 3.1 62 97
- 2.24064 2 3 tcp 1000 ------- 1 1.0 3.1 47 78
r 2.24064 2 3 tcp 1000 ------- 1 1.0 3.1 36 64
- 2.25064 2 3 tcp 1000 ------- 1 1.0 3.1 48 79
r 2.25064 2 3 tcp 1000 ------- 1 1.0 3.1 37 66
- 2.26064 2 3 tcp 1000 ------- 1 1.0 3.1 49 80
r 2.26064 2 3 tcp 1000 ------- 1 1.0 3.1 38 67
- 2.27064 2 3 tcp 1000 ------- 1 1.0 3.1 50 81
r 2.27064 2 3 tcp 1000 ------- 1 1.0 3.1 39 69
- 2.28064 2 3 tcp 1000 ------- 1 1.0 3.1 51 82
r 2.28064 2 3 tcp 1000 ------- 1 1.0 3.1 40 70
- 2.29064 2 3 tcp 1000 ------- 1 1.0 3.1 52 83
r 2.29064 2 3 tcp 1000 ------- 1 1.0 3.1 41 72
+ 2.29104 2 1 ack 40 ------- 1 3.1 1.0 31 86
- 2.29104 2 1 ack 40 ------- 1 3.1 1.0 31 86
r 2.29408 2 1 ack 40 ------- 1 3.1 1.0 31 86
+ 2.29808 2 3 tcp 1000 ------- 1 1.0 3.1 63 105
- 2.30064 2 3 tcp 1000 ------- 1 1.0 3.1 53 84
r 2.30064 2 3 tcp 1000 ------- 1 1.0 3.1 42 73
+ 2.30104 2 1 ack 40 ------- 1 3.1 1.0 32 89
- 2.30104 2 1 ack 40 ------- 1 3.1 1.0 32 89
r 2.30408 2 1 ack 40 ------- 1 3.1 1.0 32 89
+ 2.30808 2 3 tcp 1000 ------- 1 1.0 3.1 64 107
- 2.31064 2 3 tcp 1000 ------- 1 1.0 3.1 54 85
r 2.31064 2 3 tcp 1000 ------- 1 1.0 3.1 43 74
+ 2.31104 2 1 ack 40 ------- 1 3.1 1.0 33 92
- 2.31104 2 1 ack 40 ------- 1 3.1 1.0 33 92
r 2.31408 2 1 ack 40 ------- 1 3.1 1.0 33 92
+ 2.31808 2 3 tcp 1000 ------- 1 1.0 3.1 65 109
- 2.32064 2 3 tcp 1000 ------- 1 1.0 3.1 55 87
r 2.32064 2 3 tcp 1000 ------- 1 1.0 3.1 44 75
+ 2.32104 2 1 ack 40 ------- 1 3.1 1.0 34 95
- 2.32104 2 1 ack 40 ------- 1 3.1 1.0 34 95
r 2.32408 2 1 ack 40 ------- 1 3.1 1.0 34 95
+ 2.32808 2 3 tcp 1000 ------- 1 1.0 3.1 66 111
- 2.33064 2 3 tcp 1000 ------- 1 1.0 3.1 56 88
r 2.33064 2 3 tcp 1000 ------- 1 1.0 3.1 45 76
+ 2.33104 2 1 ack 40 ------- 1 3.1 1.0 35 98
- 2.33104 2 1 ack 40 ------- 1 3.1 1.0 35 98
r 2.33408 2 1 ack 40 ------- 1 3.1 1.0 35 98
+ 2.33808 2 3 tcp 1000 ------- 1 1.0 3.1 67 113
- 2.34064 2 3 tcp 1000 ------- 1 1.0 3.1 57 90
r 2.34064 2 3 tcp 1000 ------- 1 1.0 3.1 46 77
+ 2.34104 2 1 ack 40 ------- 1 3.1 1.0 36 99
- 2.34104 2 1 ack 40 ------- 1 3.1 1.0 36 99
r 2.34408 2 1 ack 40 ------- 1 3.1 1.0 36 99
+ 2.34808 2 3 tcp 1000 ------- 1 1.0 3.1 68 115
- 2.35064 2 3 tcp 1000 ------- 1 1.0 3.1 58 91
r 2.35064 2 3 tcp 1000 ------- 1 1.0 3.1 47 78
+ 2.35104 2 1 ack 40 ------- 1 3.1 1.0 37 100
- 2.35104 2 1 ack 40 ------- 1 3.1 1.0 37 100
r 2.35408 2 1 ack 40 ------- 1 3.1 1.0 37 100
+ 2.35808 2 3 tcp 1000 ------- 1 1.0 3.1 69 117
- 2.36064 2 3 tcp 1000 ------- 1 1.0 3.1 59 93
r 2.36064 2 3 tcp 1000 ------- 1 1.0 3.1 48 79
+ 2.36104 2 1 ack 40 ------- 1 3.1 1.0 38 101
- 2.36104 2 1 ack 40 ------- 1 3.1 1.0 38 101
r 2.36408 2 1 ack 40 ------- 1 3.1 1.0 38 101
+ 2.36808 2 3 tcp 1000 ------- 1 1.0 3.1 70 119
- 2.37064 2 3 tcp 1000 ------- 1 1.0 3.1 60 94
r 2.37064 2 3 tcp 1000 ------- 1 1.0 3.1 49 80
+ 2.37104 2 1 ack 40 ------- 1 3.1 1.0 39 102
- 2.37104 2 1 ack 40 ------- 1 3.1 1.0 39 102
r 2.37408 2 1 ack 40 ------- 1 3.1 1.0 39 102
+ 2.37808 2 3 tcp 1000 ------- 1 1.0 3.1 71 121
- 2.38064 2 3 tcp 1000 ------- 1 1.0 3.1 61 96
r 2.38064 2 3 tcp 1000 ------- 1 1.0 3.1 50 81
+ 2.38104 2 1 ack 40 ------- 1 3.1 1.0 40 103
- 2.38104 2 1 ack 40 ------- 1 3.1 1.0 40 103
r 2.38408 2 1 ack 40 ------- 1 3.1 1.0 40 103
+ 2.38808 2 3 tcp 1000 ------- 1 1.0 3.1 72 123
- 2.39064 2 3 tcp 1000 ------- 1 1.0 3.1 63 105
r 2.39064 2 3 tcp 1000 ------- 1 1.0 3.1 51 82
+ 2.39104 2 1 ack 40 ------- 1 3.1 1.0 41 104
- 2.39104 2 1 ack 40 ------- 1 3.1 1.0 41 104
r 2.39408 2 1 ack 40 ------- 1 3.1 1.0 41 104
+ 2.39808 2 3 tcp 1000 ------- 1 1.0 3.1 73 125
- 2.40064 2 3 tcp 1000 ------- 1 1.0 3.1 64 107
r 2.40064 2 3 tcp 1000 ------- 1 1.0 3.1 52 83
+ 2.40104 2 1 ack 40 ------- 1 3.1 1.0 42 106
- 2.40104 2 1 ack 40 ------- 1 3.1 1.0 42 106
r 2.40408 2 1 ack 40 ------- 1 3.1 1.0 42 106
+ 2.40808 2 3 tcp 1000 ------- 1 1.0 3.1 74 127
- 2.41064 2 3 tcp 1000 ------- 1 1.0 3.1 65 109
r 2.41064 2 3 tcp 1000 ------- 1 1.0 3.1 53 84
+ 2.41104 2 1 ack 40 ------- 1 3.1 1.0 43 108
- 2.41104 2 1 ack 40 ------- 1 3.1 1.0 43 108
r 2.41408 2 1 ack 40 ------- 1 3.1 1.0 43 108
+ 2.41808 2 3 tcp 1000 ------- 1 1.0 3.1 75 129
- 2.42064 2 3 tcp 1000 ------- 1 1.0 3.1 66 111
r 2.42064 2 3 tcp 1000 ------- 1 1.0 3.1 54 85
+ 2.42104 2 1 ack 40 ------- 1 3.1 1.0 44 110
- 2.42104 2 1 ack 40 ------- 1 3.1 1.0 44 110
r 2.42408 2 1 ack 40 ------- 1 3.1 1.0 44 110
+ 2.42808 2 3 tcp 1000 ------- 1 1.0 3.1 76 131
- 2.43064 2 3 tcp 1000 ------- 1 1.0 3.1 67 113
r 2.43064 2 3 tcp 1000 ------- 1 1.0 3.1 55 87
+ 2.43104 2 1 ack 40 ------- 1 3.1 1.0 45 112
- 2.43104 2 1 ack 40 ------- 1 3.1 1.0 45 112
r 2.43408 2 1 ack 40 ------- 1 3.1 1.0 45 112
+ 2.43808 2 3 tcp 1000 ------- 1 1.0 3.1 77 133
- 2.44064 2 3 tcp 1000 ------- 1 1.0 3.1 68 115
r 2.44064 2 3 tcp 1000 ------- 1 1.0 3.1 56 88
+ 2.44104 2 1 ack 40 ------- 1 3.1 1.0 46 114
- 2.44104 2 1 ack 40 ------- 1 3.1 1.0 46 114
r 2.44408 2 1 ack 40 ------- 1 3.1 1.0 46 114
+ 2.44808 2 3 tcp 1000 ------- 1 1.0 3.1 78 135
- 2.45064 2 3 tcp 1000 ------- 1 1.0 3.1 69 117
r 2.45064 2 3 tcp 1000 ------- 1 1.0 3.1 57 90
+ 2.45104 2 1 ack 40 ------- 1 3.1 1.0 47 116
- 2.45104 2 1 ack 40 ------- 1 3.1 1.0 47 116
r 2.45408 2 1 ack 40 ------- 1 3.1 1.0 47 116
+ 2.45808 2 3 tcp 1000 ------- 1 1.0 3.1 79 137
- 2.46064 2 3 tcp 1000 ------- 1 1.0 3.1 70 119
r 2.46064 2 3 tcp 1000 ------- 1 1.0 3.1 58 91
+ 2.46104 2 1 ack 40 ------- 1 3.1 1.0 48 118
- 2.46104 2 1 ack 40 ------- 1 3.1 1.0 48 118
r 2.46408 2 1 ack 40 ------- 1 3.1 1.0 48 118
+ 2.46808 2 3 tcp 1000 ------- 1 1.0 3.1 80 139
- 2.47064 2 3 tcp 1000 ------- 1 1.0 3.1 71 121
r 2.47064 2 3 tcp 1000 ------- 1 1.0 3.1 59 93
+ 2.47104 2 1 ack 40 ------- 1 3.1 1.0 49 120
- 2.47104 2 1 ack 40 ------- 1 3.1 1.0 49 120
r 2.47408 2 1 ack 40 ------- 1 3.1 1.0 49 120
+ 2.47808 2 3 tcp 1000 ------- 1 1.0 3.1 81 141
- 2.48064 2 3 tcp 1000 ------- 1 1.0 3.1 72 123
r 2.48064 2 3 tcp 1000 ------- 1 1.0 3.1 60 94
+ 2.48104 2 1 ack 40 ------- 1 3.1 1.0 50 122
- 2.48104 2 1 ack 40 ------- 1 3.1 1.0 50 122
r 2.48408 2 1 ack 40 ------- 1 3.1 1.0 50 122
+ 2.48808 2 3 tcp 1000 ------- 1 1.0 3.1 82 143
- 2.49064 2 3 tcp 1000 ------- 1 1.0 3.1 73 125
r 2.49064 2 3 tcp 1000 ------- 1 1.0 3.1 61 96
+ 2.49104 2 1 ack 40 ------- 1 3.1 1.0 51 124
- 2.49104 2 1 ack 40 ------- 1 3.1 1.0 51 124
r 2.49408 2 1 ack 40 ------- 1 3.1 1.0 51 124
+ 2.49808 2 3 tcp 1000 ------- 1 1.0 3.1 83 145
- 2.50064 2 3 tcp 1000 ------- 1 1.0 3.1 74 127
r 2.50064 2 3 tcp 1000 ------- 1 1.0 3.1 63 105
+ 2.50104 2 1 ack 40 ------- 1 3.1 1.0 52 126
- 2.50104 2 1 ack 40 ------- 1 3.1 1.0 52 126
r 2.50408 2 1 ack 40 ------- 1 3.1 1.0 52 126
+ 2.50808 2 3 tcp 1000 ------- 1 1.0 3.1 84 147
- 2.51064 2 3 tcp 1000 ------- 1 1.0 3.1 75 129
r 2.51064 2 3 tcp 1000 ------- 1 1.0 3.1 64 107
+ 2.51104 2 1 ack 40 ------- 1 3.1 1.0 53 128
- 2.51104 2 1 ack 40 ------- 1 3.1 1.0 53 128
r 2.51408 2 1 ack 40 ------- 1 3.1 1.0 53 128
+ 2.51808 2 3 tcp 1000 ------- 1 1.0 3.1 85 149
- 2.52064 2 3 tcp 1000 ------- 1 1.0 3.1 76 131
r 2.52064 2 3 tcp 1000 ------- 1 1.0 3.1 65 109
+ 2.52104 2 1 ack 40 ------- 1 3.1 1.0 54 130
- 2.52104 2 1 ack 40 ------- 1 3.1 1.0 54 130
r 2.52408 2 1 ack 40 ------- 1 3.1 1.0 54 130
+ 2.52808 2 3 tcp 1000 ------- 1 1.0 3.1 86 151
- 2.53064 2 3 tcp 1000 ------- 1 1.0 3.1 77 133
r 2.53064 2 3 tcp 1000 ------- 1 1.0 3.1 66 111
+ 2.53104 2 1 ack 40 ------- 1 3.1 1.0 55 132
- 2.53104 2 1 ack 40 ------- 1 3.1 1.0 55 132
r 2.53408 2 1 ack 40 ------- 1 3.1 1.0 55 132
+ 2.53808 2 3 tcp 1000 ------- 1 1.0 3.1 87 153
- 2.54064 2 3 tcp 1000 ------- 1 1.0 3.1 78 135
r 2.54064 2 3 tcp 1000 ------- 1 1.0 3.1 67 113
+ 2.54104 2 1 ack 40 ------- 1 3.1 1.0 56 134
- 2.54104 2 1 ack 40 ------- 1 3.1 1.0 56 134
r 2.54408 2 1 ack 40 ------- 1 3.1 1.0 56 134
+ 2.54808 2 3 tcp 1000 ------- 1 1.0 3.1 88 155
- 2.55064 2 3 tcp 1000 ------- 1 1.0 3.1 79 137
r 2.55064 2 3 tcp 1000 ------- 1 1.0 3.1 68 115
+ 2.55104 2 1 ack 40 ------- 1 3.1 1.0 57 136
- 2.55104 2 1 ack 40 ------- 1 3.1 1.0 57 136
r 2.55408 2 1 ack 40 ------- 1 3.1 1.0 57 136
+ 2.55808 2 3 tcp 1000 ------- 1 1.0 3.1 89 157
- 2.56064 2 3 tcp 1000 ------- 1 1.0 3.1 80 139
r 2.56064 2 3 tcp 1000 ------- 1 1.0 3.1 69 117
+ 2.56104 2 1 ack 40 ------- 1 3.1 1.0 58 138
- 2.56104 2 1 ack 40 ------- 1 3.1 1.0 58 138
r 2.56408 2 1 ack 40 ------- 1 3.1 1.0 58 138
+ 2.56808 2 3 tcp 1000 ------- 1 1.0 3.1 90 159
- 2.57064 2 3 tcp 1000 ------- 1 1.0 3.1 81 141
r 2.57064 2 3 tcp 1000 ------- 1 1.0 3.1 70 119
+ 2.57104 2 1 ack 40 ------- 1 3.1 1.0 59 140
- 2.57104 2 1 ack 40 ------- 1 3.1 1.0 59 140
r 2.57408 2 1 ack 40 ------- 1 3.1 1.0 59 140
+ 2.57808 2 3 tcp 1000 ------- 1 1.0 3.1 91 161
- 2.58064 2 3 tcp 1000 ------- 1 1.0 3.1 82 143
r 2.58064 2 3 tcp 1000 ------- 1 1.0 3.1 71 121
+ 2.58104 2 1 ack 40 ------- 1 3.1 1.0 60 142
- 2.58104 2 1 ack 40 ------- 1 3.1 1.0 60 142
r 2.58408 2 1 ack 40 ------- 1 3.1 1.0 60 142
+ 2.58808 2 3 tcp 1000 ------- 1 1.0 3.1 92 163
- 2.59064 2 3 tcp 1000 ------- 1 1.0 3.1 83 145
r 2.59064 2 3 tcp 1000 ------- 1 1.0 3.1 72 123
+ 2.59104 2 1 ack 40 ------- 1 3.1 1.0 61 144
- 2.59104 2 1 ack 40 ------- 1 3.1 1.0 61 144
r 2.59408 2 1 ack 40 ------- 1 3.1 1.0 61 144
+ 2.59808 2 3 tcp 1000 ------- 1 1.0 3.1 93 165
- 2.60064 2 3 tcp 1000 ------- 1 1.0 3.1 84 147
r 2.60064 2 3 tcp 1000 ------- 1 1.0 3.1 73 125
+ 2.60104 2 1 ack 40 ------- 1 3.1 1.0 61 146
- 2.60104 2 1 ack 40 ------- 1 3.1 1.0 61 146
r 2.60408 2 1 ack 40 ------- 1 3.1 1.0 61 146
- 2.61064 2 3 tcp 1000 ------- 1 1.0 3.1 85 149
r 2.61064 2 3 tcp 1000 ------- 1 1.0 3.1 74 127
+ 2.61104 2 1 ack 40 ------- 1 3.1 1.0 61 148
- 2.61104 2 1 ack 40 ------- 1 3.1 1.0 61 148
r 2.61408 2 1 ack 40 ------- 1 3.1 1.0 61 148
- 2.62064 2 3 tcp 1000 ------- 1 1.0 3.1 86 151
r 2.62064 2 3 tcp 1000 ------- 1 1.0 3.1 75 129
+ 2.62104 2 1 ack 40 ------- 1 3.1 1.0 61 150
- 2.62104 2 1 ack 40 ------- 1 3.1 1.0 61 150
r 2.62408 2 1 ack 40 ------- 1 3.1 1.0 61 150
+ 2.62808 2 3 tcp 1000 ---A--- 1 1.0 3.1 62 169
- 2.63064 2 3 tcp 1000 ------- 1 1.0 3.1 87 153
r 2.63064 2 3 tcp 1000 ------- 1 1.0 3.1 76 131
+ 2.63104 2 1 ack 40 ------- 1 3.1 1.0 61 152
- 2.63104 2 1 ack 40 ------- 1 3.1 1.0 61 152
r 2.63408 2 1 ack 40 ------- 1 3.1 1.0 61 152
- 2.64064 2 3 tcp 1000 ------- 1 1.0 3.1 88 155
r 2.64064 2 3 tcp 1000 ------- 1 1.0 3.1 77 133
+ 2.64104 2 1 ack 40 ------- 1 3.1 1.0 61 154
- 2.64104 2 1 ack 40 ------- 1 3.1 1.0 61 154
r 2.64408 2 1 ack 40 ------- 1 3.1 1.0 61 154
- 2.65064 2 3 tcp 1000 ------- 1 1.0 3.1 89 157
r 2.65064 2 3 tcp 1000 ------- 1 1.0 3.1 78 135
+ 2.65104 2 1 ack 40 ------- 1 3.1 1.0 61 156
- 2.65104 2 1 ack 40 ------- 1 3.1 1.0 61 156
r 2.65408 2 1 ack 40 ------- 1 3.1 1.0 61 156
- 2.66064 2 3 tcp 1000 ------- 1 1.0 3.1 90 159
r 2.66064 2 3 tcp 1000 ------- 1 1.0 3.1 79 137
+ 2.66104 2 1 ack 40 ------- 1 3.1 1.0 61 158
- 2.66104 2 1 ack 40 ------- 1 3.1 1.0 61 158
r 2.66408 2 1 ack 40 ------- 1 3.1 1.0 61 158
- 2.67064 2 3 tcp 1000 ------- 1 1.0 3.1 91 161
r 2.67064 2 3 tcp 1000 ------- 1 1.0 3.1 80 139
+ 2.67104 2 1 ack 40 ------- 1 3.1 1.0 61 160
- 2.67104 2 1 ack 40 ------- 1 3.1 1.0 61 160
r 2.67408 2 1 ack 40 ------- 1 3.1 1.0 61 160
- 2.68064 2 3 tcp 1000 ------- 1 1.0 3.1 92 163
r 2.68064 2 3 tcp 1000 ------- 1 1.0 3.1 81 141
+ 2.68104 2 1 ack 40 ------- 1 3.1 1.0 61 162
- 2.68104 2 1 ack 40 ------- 1 3.1 1.0 61 162
r 2.68408 2 1 ack 40 ------- 1 3.1 1.0 61 162
- 2.69064 2 3 tcp 1000 ------- 1 1.0 3.1 93 165
r 2.69064 2 3 tcp 1000 ------- 1 1.0 3.1 82 143
+ 2.69104 2 1 ack 40 ------- 1 3.1 1.0 61 164
- 2.69104 2 1 ack 40 ------- 1 3.1 1.0 61 164
r 2.69408 2 1 ack 40 ------- 1 3.1 1.0 61 164
- 2.70064 2 3 tcp 1000 ---A--- 1 1.0 3.1 62 169
r 2.70064 2 3 tcp 1000 ------- 1 1.0 3.1 83 145
+ 2.70104 2 1 ack 40 ------- 1 3.1 1.0 61 166
- 2.70104 2 1 ack 40 ------- 1 3.1 1.0 61 166
r 2.70408 2 1 ack 40 ------- 1 3.1 1.0 61 166
r 2.71064 2 3 tcp 1000 ------- 1 1.0 3.1 84 147
+ 2.71104 2 1 ack 40 ------- 1 3.1 1.0 61 167
- 2.71104 2 1 ack 40 ------- 1 3.1 1.0 61 167
r 2.71408 2 1 ack 40 ------- 1 3.1 1.0 61 167
r 2.72064 2 3 tcp 1000 ------- 1 1.0 3.1 85 149
+ 2.72104 2 1 ack 40 ------- 1 3.1 1.0 61 168
- 2.72104 2 1 ack 40 ------- 1 3.1 1.0 61 168
r 2.72408 2 1 ack 40 ------- 1 3.1 1.0 61 168
r 2.73064 2 3 tcp 1000 ------- 1 1.0 3.1 86 151
+ 2.73104 2 1 ack 40 ------- 1 3.1 1.0 61 170
- 2.73104 2 1 ack 40 ------- 1 3.1 1.0 61 170
r 2.73408 2 1 ack 40 ------- 1 3.1 1.0 61 170
r 2.74064 2 3 tcp 1000 ------- 1 1.0 3.1 87 153
+ 2.74104 2 1 ack 40 ------- 1 3.1 1.0 61 171
- 2.74104 2 1 ack 40 ------- 1 3.1 1.0 61 171
r 2.74408 2 1 ack 40 ------- 1 3.1 1.0 61 171
r 2.75064 2 3 tcp 1000 ------- 1 1.0 3.1 88 155
+ 2.75104 2 1 ack 40 ------- 1 3.1 1.0 61 172
- 2.75104 2 1 ack 40 ------- 1 3.1 1.0 61 172
r 2.75408 2 1 ack 40 ------- 1 3.1 1.0 61 172
r 2.76064 2 3 tcp 1000 ------- 1 1.0 3.1 89 157
+ 2.76104 2 1 ack 40 ------- 1 3.1 1.0 61 173
- 2.76104 2 1 ack 40 ------- 1 3.1 1.0 61 173
r 2.76408 2 1 ack 40 ------- 1 3.1 1.0 61 173
r 2.77064 2 3 tcp 1000 ------- 1 1.0 3.1 90 159
+ 2.77104 2 1 ack 40 ------- 1 3.1 1.0 61 174
- 2.77104 2 1 ack 40 ------- 1 3.1 1.0 61 174
r 2.77408 2 1 ack 40 ------- 1 3.1 1.0 61 174
r 2.78064 2 3 tcp 1000 ------- 1 1.0 3.1 91 161
+ 2.78104 2 1 ack 40 ------- 1 3.1 1.0 61 175
- 2.78104 2 1 ack 40 ------- 1 3.1 1.0 61 175
r 2.78408 2 1 ack 40 ------- 1 3.1 1.0 61 175
r 2.79064 2 3 tcp 1000 ------- 1 1.0 3.1 92 163
+ 2.79104 2 1 ack 40 ------- 1 3.1 1.0 61 176
- 2.79104 2 1 ack 40 ------- 1 3.1 1.0 61 176
r 2.79408 2 1 ack 40 ------- 1 3.1 1.0 61 176
r 2.80064 2 3 tcp 1000 ------- 1 1.0 3.1 93 165
+ 2.80104 2 1 ack 40 ------- 1 3.1 1.0 61 177
- 2.80104 2 1 ack 40 ------- 1 3.1 1.0 61 177
r 2.80408 2 1 ack 40 ------- 1 3.1 1.0 61 177
r 2.81064 2 3 tcp 1000 ---A--- 1 1.0 3.1 62 169
+ 2.81104 2 1 ack 40 ------- 1 3.1 1.0 61 178
- 2.81104 2 1 ack 40 ------- 1 3.1 1.0 61 178
r 2.81408 2 1 ack 40 ------- 1 3.1 1.0 61 178
+ 2.82104 2 1 ack 40 ------- 1 3.1 1.0 61 179
- 2.82104 2 1 ack 40 ------- 1 3.1 1.0 61 179
r 2.82408 2 1 ack 40 ------- 1 3.1 1.0 61 179
+ 2.83104 2 1 ack 40 ------- 1 3.1 1.0 61 180
- 2.83104 2 1 ack 40 ------- 1 3.1 1.0 61 180
r 2.83408 2 1 ack 40 ------- 1 3.1 1.0 61 180
+ 2.84104 2 1 ack 40 ------- 1 3.1 1.0 61 181
- 2.84104 2 1 ack 40 ------- 1 3.1 1.0 61 181
r 2.84408 2 1 ack 40 ------- 1 3.1 1.0 61 181
+ 2.85104 2 1 ack 40 ------- 1 3.1 1.0 61 182
- 2.85104 2 1 ack 40 ------- 1 3.1 1.0 61 182
r 2.85408 2 1 ack 40 ------- 1 3.1 1.0 61 182
+ 2.86104 2 1 ack 40 ------- 1 3.1 1.0 61 183
- 2.86104 2 1 ack 40 ------- 1 3.1 1.0 61 183
r 2.86408 2 1 ack 40 ------- 1 3.1 1.0 61 183
+ 2.87104 2 1 ack 40 ------- 1 3.1 1.0 61 184
- 2.87104 2 1 ack 40 ------- 1 3.1 1.0 61 184
r 2.87408 2 1 ack 40 ------- 1 3.1 1.0 61 184
+ 2.88104 2 1 ack 40 ------- 1 3.1 1.0 61 185
- 2.88104 2 1 ack 40 ------- 1 3.1 1.0 61 185
r 2.88408 2 1 ack 40 ------- 1 3.1 1.0 61 185
+ 2.89104 2 1 ack 40 ------- 1 3.1 1.0 61 186
- 2.89104 2 1 ack 40 ------- 1 3.1 1.0 61 186
r 2.89408 2 1 ack 40 ------- 1 3.1 1.0 61 186
+ 2.90104 2 1 ack 40 ------- 1 3.1 1.0 61 187
- 2.90104 2 1 ack 40 ------- 1 3.1 1.0 61 187
r 2.90408 2 1 ack 40 ------- 1 3.1 1.0 61 187
+ 2.91104 2 1 ack 40 ------- 1 3.1 1.0 93 188
- 2.91104 2 1 ack 40 ------- 1 3.1 1.0 93 188
r 2.91408 2 1 ack 40 ------- 1 3.1 1.0 93 188
+ 2.91808 2 3 tcp 1000 ------- 1 1.0 3.1 94 189
- 2.91808 2 3 tcp 1000 ------- 1 1.0 3.1 94 189
+ 2.91908 2 3 tcp 1000 ------- 1 1.0 3.1 95 190
- 2.92808 2 3 tcp 1000 ------- 1 1.0 3.1 95 190
r 3.02808 2 3 tcp 1000 ------- 1 1.0 3.1 94 189
r 3.03808 2 3 tcp 1000 ------- 1 1.0 3.1 95 190
+ 3.12848 2 1 ack 40 ------- 1 3.1 1.0 94 191
- 3.12848 2 1 ack 40 ------- 1 3.1 1.0 94 191
r 3.13152 2 1 ack 40 ------- 1 3.1 1.0 94 191
+ 3.13552 2 3 tcp 1000 ------- 1 1.0 3.1 96 193
- 3.13552 2 3 tcp 1000 ------- 1 1.0 3.1 96 193
+ 3.13652 2 3 tcp 1000 ------- 1 1.0 3.1 97 194
+ 3.13848 2 1 ack 40 ------- 1 3.1 1.0 95 192
- 3.13848 2 1 ack 40 ------- 1 3.1 1.0 95 192
r 3.14152 2 1 ack 40 ------- 1 3.1 1.0 95 192
- 3.14552 2 3 tcp 1000 ------- 1 1.0 3.1 97 194
+ 3.14552 2 3 tcp 1000 ------- 1 1.0 3.1 98 195
+ 3.14652 2 3 tcp 1000 ------- 1 1.0 3.1 99 196
- 3.15552 2 3 tcp 1000 ------- 1 1.0 3.1 98 195
- 3.16552 2 3 tcp 1000 ------- 1 1.0 3.1 99 196
r 3.24552 2 3 tcp 1000 ------- 1 1.0 3.1 96 193
r 3.25552 2 3 tcp 1000 ------- 1 1.0 3.1 97 194
r 3.26552 2 3 tcp 1000 ------- 1 1.0 3.1 98 195
r 3.27552 2 3 tcp 1000 ------- 1 1.0 3.1 99 196
+ 3.34592 2 1 ack 40 ------- 1 3.1 1.0 96 197
- 3.34592 2 1 ack 40 ------- 1 3.1 1.0 96 197
r 3.34896 2 1 ack 40 ------- 1 3.1 1.0 96 197
+ 3.35296 2 3 tcp 1000 ------- 1 1.0 3.1 100 201
- 3.35296 2 3 tcp 1000 ------- 1 1.0 3.1 100 201
+ 3.35396 2 3 tcp 1000 ------- 1 1.0 3.1 101 202
+ 3.35592 2 1 ack 40 ------- 1 3.1 1.0 97 198
- 3.35592 2 1 ack 40 ------- 1 3.1 1.0 97 198
r 3.35896 2 1 ack 40 ------- 1 3.1 1.0 97 198
- 3.36296 2 3 tcp 1000 ------- 1 1.0 3.1 101 202
+ 3.36296 2 3 tcp 1000 ------- 1 1.0 3.1 102 203
+ 3.36396 2 3 tcp 1000 ------- 1 1.0 3.1 103 204
+ 3.36592 2 1 ack 40 ------- 1 3.1 1.0 98 199
- 3.36592 2 1 ack 40 ------- 1 3.1 1.0 98 199
r 3.36896 2 1 ack 40 ------- 1 3.1 1.0 98 199
- 3.37296 2 3 tcp 1000 ------- 1 1.0 3.1 102 203
+ 3.37296 2 3 tcp 1000 ------- 1 1.0 3.1 104 205
+ 3.37396 2 3 tcp 1000 ------- 1 1.0 3.1 105 206
+ 3.37592 2 1 ack 40 ------- 1 3.1 1.0 99 200
- 3.37592 2 1 ack 40 ------- 1 3.1 1.0 99 200
r 3.37896 2 1 ack 40 ------- 1 3.1 1.0 99 200
- 3.38296 2 3 tcp 1000 ------- 1 1.0 3.1 103 204
+ 3.38296 2 3 tcp 1000 ------- 1 1.0 3.1 106 207
+ 3.38396 2 3 tcp 1000 ------- 1 1.0 3.1 107 208
- 3.39296 2 3 tcp 1000 ------- 1 1.0 3.1 104 205
- 3.40296 2 3 tcp 1000 ------- 1 1.0 3.1 105 206
- 3.41296 2 3 tcp 1000 ------- 1 1.0 3.1 106 207
- 3.42296 2 3 tcp 1000 ------- 1 1.0 3.1 107 208
r 3.46296 2 3 tcp 1000 ------- 1 1.0 3.1 100 201
r 3.47296 2 3 tcp 1000 ------- 1 1.0 3.1 101 202
r 3.48296 2 3 tcp 1000 ------- 1 1.0 3.1 102 203
r 3.49296 2 3 tcp 1000 ------- 1 1.0 3.1 103 204
r 3.50296 2 3 tcp 1000 ------- 1 1.0 3.1 104 205
r 3.51296 2 3 tcp 1000 ------- 1 1.0 3.1 105 206
r 3.52296 2 3 tcp 1000 ------- 1 1.0 3.1 106 207
r 3.53296 2 3 tcp 1000 ------- 1 1.0 3.1 107 208
+ 3.56336 2 1 ack 40 ------- 1 3.1 1.0 100 209
- 3.56336 2 1 ack 40 ------- 1 3.1 1.0 100 209
r 3.5664 2 1 ack 40 ------- 1 3.1 1.0 100 209
+ 3.5704 2 3 tcp 1000 ------- 1 1.0 3.1 108 217
- 3.5704 2 3 tcp 1000 ------- 1 1.0 3.1 108 217
+ 3.5714 2 3 tcp 1000 ------- 1 1.0 3.1 109 218
+ 3.57336 2 1 ack 40 ------- 1 3.1 1.0 101 210
- 3.57336 2 1 ack 40 ------- 1 3.1 1.0 101 210
r 3.5764 2 1 ack 40 ------- 1 3.1 1.0 101 210
- 3.5804 2 3 tcp 1000 ------- 1 1.0 3.1 109 218
+ 3.5804 2 3 tcp 1000 ------- 1 1.0 3.1 110 219
+ 3.5814 2 3 tcp 1000 ------- 1 1.0 3.1 111 220
+ 3.58336 2 1 ack 40 ------- 1 3.1 1.0 102 211
- 3.58336 2 1 ack 40 ------- 1 3.1 1.0 102 211
r 3.5864 2 1 ack 40 ------- 1 3.1 1.0 102 211
- 3.5904 2 3 tcp 1000 ------- 1 1.0 3.1 110 219
+ 3.5904 2 3 tcp 1000 ------- 1 1.0 3.1 112 221
+ 3.5914 2 3 tcp 1000 ------- 1 1.0 3.1 113 222
+ 3.59336 2 1 ack 40 ------- 1 3.1 1.0 103 212
- 3.59336 2 1 ack 40 ------- 1 3.1 1.0 103 212
r 3.5964 2 1 ack 40 ------- 1 3.1 1.0 103 212