M 0.0 nn 5 x 600 y 400 rp AODV
M 0.0 sc scn.tcl cp cbr-exp1.tcl seed 0.0
M 0.0 prop Propagation/TwoRayGround ant Antenna/OmniAntenna
s 3.000000000 _1_ AGT  --- 0 cbr 512 [0 0 0 0] ------- [1:0 4:0 32 0] [0] 0 0
r 3.000000000 _1_ RTR  --- 0 cbr 512 [0 0 0 0] ------- [1:0 4:0 32 0] [0] 0 0
s 3.000000000 _1_ RTR  --- 0 AODV 48 [0 0 0 0] ------- [1:255 -1:255 30 0] [0x2 1 1 [4 0] [1 4]] (REQUEST)
s 3.000115000 _1_ MAC  --- 0 AODV 106 [0 ffffffff 1 800] ------- [1:255 -1:255 30 0] [0x2 1 1 [4 0] [1 4]] (REQUEST)
r 3.000963500 _0_ MAC  --- 0 AODV 48 [0 ffffffff 1 800] ------- [1:255 -1:255 30 0] [0x2 1 1 [4 0] [1 4]] (REQUEST)
r 3.000963500 _2_ MAC  --- 0 AODV 48 [0 ffffffff 1 800] ------- [1:255 -1:255 30 0] [0x2 1 1 [4 0] [1 4]] (REQUEST)
r 3.000988500 _0_ RTR  --- 0 AODV 48 [0 ffffffff 1 800] ------- [1:255 -1:255 30 0] [0x2 1 1 [4 0] [1 4]] (REQUEST)
r 3.000988500 _2_ RTR  --- 0 AODV 48 [0 ffffffff 1 800] ------- [1:255 -1:255 30 0] [0x2 1 1 [4 0] [1 4]] (REQUEST)
s 3.001869727 _0_ RTR  --- 0 AODV 48 [0 ffffffff 1 800] ------- [0:255 -1:255 29 0] [0x2 2 1 [4 0] [1 4]] (REQUEST)
s 3.001944727 _0_ MAC  --- 0 AODV 106 [0 ffffffff 0 800] ------- [0:255 -1:255 29 0] [0x2 2 1 [4 0] [1 4]] (REQUEST)
r 3.002793227 _1_ MAC  --- 0 AODV 48 [0 ffffffff 0 800] ------- [0:255 -1:255 29 0] [0x2 2 1 [4 0] [1 4]] (REQUEST)
r 3.002818227 _1_ RTR  --- 0 AODV 48 [0 ffffffff 0 800] ------- [0:255 -1:255 29 0] [0x2 2 1 [4 0] [1 4]] (REQUEST)
s 3.005400234 _2_ RTR  --- 0 AODV 48 [0 ffffffff 1 800] ------- [2:255 -1:255 29 0] [0x2 2 1 [4 0] [1 4]] (REQUEST)
s 3.005675234 _2_ MAC  --- 0 AODV 106 [0 ffffffff 2 800] ------- [2:255 -1:255 29 0] [0x2 2 1 [4 0] [1 4]] (REQUEST)
r 3.006523734 _1_ MAC  --- 0 AODV 48 [0 ffffffff 2 800] ------- [2:255 -1:255 29 0] [0x2 2 1 [4 0] [1 4]] (REQUEST)
r 3.006523734 _3_ MAC  --- 0 AODV 48 [0 ffffffff 2 800] ------- [2:255 -1:255 29 0] [0x2 2 1 [4 0] [1 4]] (REQUEST)
r 3.006548734 _1_ RTR  --- 0 AODV 48 [0 ffffffff 2 800] ------- [2:255 -1:255 29 0] [0x2 2 1 [4 0] [1 4]] (REQUEST)
r 3.006548734 _3_ RTR  --- 0 AODV 48 [0 ffffffff 2 800] ------- [2:255 -1:255 29 0] [0x2 2 1 [4 0] [1 4]] (REQUEST)
s 3.012937385 _3_ RTR  --- 0 AODV 48 [0 ffffffff 2 800] ------- [3:255 -1:255 28 0] [0x2 3 1 [4 0] [1 4]] (REQUEST)
s 3.013272385 _3_ MAC  --- 0 AODV 106 [0 ffffffff 3 800] ------- [3:255 -1:255 28 0] [0x2 3 1 [4 0] [1 4]] (REQUEST)
r 3.014120885 _2_ MAC  --- 0 AODV 48 [0 ffffffff 3 800] ------- [3:255 -1:255 28 0] [0x2 3 1 [4 0] [1 4]] (REQUEST)
r 3.014120885 _4_ MAC  --- 0 AODV 48 [0 ffffffff 3 800] ------- [3:255 -1:255 28 0] [0x2 3 1 [4 0] [1 4]] (REQUEST)
r 3.014145885 _2_ RTR  --- 0 AODV 48 [0 ffffffff 3 800] ------- [3:255 -1:255 28 0] [0x2 3 1 [4 0] [1 4]] (REQUEST)
r 3.014145885 _4_ RTR  --- 0 AODV 48 [0 ffffffff 3 800] ------- [3:255 -1:255 28 0] [0x2 3 1 [4 0] [1 4]] (REQUEST)
s 3.014145885 _4_ RTR  --- 0 AODV 44 [0 0 0 0] ------- [4:255 1:255 30 3] [0x4 1 [4 4] 10.000000] (REPLY)
s 3.014240885 _4_ MAC  --- 0 ARP 86 [0 ffffffff 4 806] ------- [REQUEST 4/4 0/3]
r 3.014929385 _3_ MAC  --- 0 ARP 28 [0 ffffffff 4 806] ------- [REQUEST 4/4 0/3]
s 3.015159385 _3_ MAC  --- 0 RTS 44 [52e 4 3 0] 
r 3.015511885 _4_ MAC  --- 0 RTS 44 [52e 4 3 0] 
s 3.015521885 _4_ MAC  --- 0 CTS 38 [3f4 3 0 0] 
r 3.015826385 _3_ MAC  --- 0 CTS 38 [3f4 3 0 0] 
s 3.015836385 _3_ MAC  --- 0 ARP 86 [13a 4 3 806] ------- [REPLY 3/3 4/4]
r 3.016524885 _4_ MAC  --- 0 ARP 28 [13a 4 3 806] ------- [REPLY 3/3 4/4]
s 3.016534885 _4_ MAC  --- 0 ACK 38 [0 3 0 0] 
r 3.016839385 _3_ MAC  --- 0 ACK 38 [0 3 0 0] 
s 3.017248885 _4_ MAC  --- 0 RTS 44 [5ae 3 4 0] 
r 3.017601385 _3_ MAC  --- 0 RTS 44 [5ae 3 4 0] 
s 3.017611385 _3_ MAC  --- 0 CTS 38 [474 4 0 0] 
r 3.017915885 _4_ MAC  --- 0 CTS 38 [474 4 0 0] 
s 3.017925885 _4_ MAC  --- 0 AODV 102 [13a 3 4 800] ------- [4:255 1:255 30 3] [0x4 1 [4 4] 10.000000] (REPLY)
r 3.018742385 _3_ MAC  --- 0 AODV 44 [13a 3 4 800] ------- [4:255 1:255 30 3] [0x4 1 [4 4] 10.000000] (REPLY)
s 3.018752385 _3_ MAC  --- 0 ACK 38 [0 4 0 0] 
r 3.018767385 _3_ RTR  --- 0 AODV 44 [13a 3 4 800] ------- [4:255 1:255 30 3] [0x4 1 [4 4] 10.000000] (REPLY)
f 3.018767385 _3_ RTR  --- 0 AODV 44 [13a 3 4 800] ------- [4:255 1:255 29 2] [0x4 2 [4 4] 10.000000] (REPLY)
r 3.019056885 _4_ MAC  --- 0 ACK 38 [0 4 0 0] 
s 3.019466385 _3_ MAC  --- 0 ARP 86 [0 ffffffff 3 806] ------- [REQUEST 3/3 0/2]
r 3.020154885 _2_ MAC  --- 0 ARP 28 [0 ffffffff 3 806] ------- [REQUEST 3/3 0/2]
r 3.020154885 _4_ MAC  --- 0 ARP 28 [0 ffffffff 3 806] ------- [REQUEST 3/3 0/2]
s 3.020689885 _2_ MAC  --- 0 RTS 44 [52e 3 2 0] 
r 3.021042385 _3_ MAC  --- 0 RTS 44 [52e 3 2 0] 
s 3.021052385 _3_ MAC  --- 0 CTS 38 [3f4 2 0 0] 
r 3.021356885 _2_ MAC  --- 0 CTS 38 [3f4 2 0 0] 
s 3.021366885 _2_ MAC  --- 0 ARP 86 [13a 3 2 806] ------- [REPLY 2/2 3/3]
r 3.022055385 _3_ MAC  --- 0 ARP 28 [13a 3 2 806] ------- [REPLY 2/2 3/3]
s 3.022065385 _3_ MAC  --- 0 ACK 38 [0 2 0 0] 
r 3.022369885 _2_ MAC  --- 0 ACK 38 [0 2 0 0] 
s 3.022759385 _3_ MAC  --- 0 RTS 44 [5ae 2 3 0] 
r 3.023111885 _2_ MAC  --- 0 RTS 44 [5ae 2 3 0] 
s 3.023121885 _2_ MAC  --- 0 CTS 38 [474 3 0 0] 
r 3.023426385 _3_ MAC  --- 0 CTS 38 [474 3 0 0] 
s 3.023436385 _3_ MAC  --- 0 AODV 102 [13a 2 3 800] ------- [4:255 1:255 29 2] [0x4 2 [4 4] 10.000000] (REPLY)
r 3.024252885 _2_ MAC  --- 0 AODV 44 [13a 2 3 800] ------- [4:255 1:255 29 2] [0x4 2 [4 4] 10.000000] (REPLY)
s 3.024262885 _2_ MAC  --- 0 ACK 38 [0 3 0 0] 
r 3.024277885 _2_ RTR  --- 0 AODV 44 [13a 2 3 800] ------- [4:255 1:255 29 2] [0x4 2 [4 4] 10.000000] (REPLY)
f 3.024277885 _2_ RTR  --- 0 AODV 44 [13a 2 3 800] ------- [4:255 1:255 28 1] [0x4 3 [4 4] 10.000000] (REPLY)
r 3.024567385 _3_ MAC  --- 0 ACK 38 [0 3 0 0] 
s 3.024816885 _2_ MAC  --- 0 ARP 86 [0 ffffffff 2 806] ------- [REQUEST 2/2 0/1]
r 3.025505385 _1_ MAC  --- 0 ARP 28 [0 ffffffff 2 806] ------- [REQUEST 2/2 0/1]
r 3.025505385 _3_ MAC  --- 0 ARP 28 [0 ffffffff 2 806] ------- [REQUEST 2/2 0/1]
s 3.025800385 _1_ MAC  --- 0 RTS 44 [52e 2 1 0] 
r 3.026152885 _2_ MAC  --- 0 RTS 44 [52e 2 1 0] 
s 3.026162885 _2_ MAC  --- 0 CTS 38 [3f4 1 0 0] 
r 3.026467385 _1_ MAC  --- 0 CTS 38 [3f4 1 0 0] 
s 3.026477385 _1_ MAC  --- 0 ARP 86 [13a 2 1 806] ------- [REPLY 1/1 2/2]
r 3.027165885 _2_ MAC  --- 0 ARP 28 [13a 2 1 806] ------- [REPLY 1/1 2/2]
s 3.027175885 _2_ MAC  --- 0 ACK 38 [0 1 0 0] 
r 3.027480385 _1_ MAC  --- 0 ACK 38 [0 1 0 0] 
s 3.027969885 _2_ MAC  --- 0 RTS 44 [5ae 1 2 0] 
r 3.028322385 _1_ MAC  --- 0 RTS 44 [5ae 1 2 0] 
s 3.028332385 _1_ MAC  --- 0 CTS 38 [474 2 0 0] 
r 3.028636885 _2_ MAC  --- 0 CTS 38 [474 2 0 0] 
s 3.028646885 _2_ MAC  --- 0 AODV 102 [13a 1 2 800] ------- [4:255 1:255 28 1] [0x4 3 [4 4] 10.000000] (REPLY)
r 3.029463385 _1_ MAC  --- 0 AODV 44 [13a 1 2 800] ------- [4:255 1:255 28 1] [0x4 3 [4 4] 10.000000] (REPLY)
s 3.029473385 _1_ MAC  --- 0 ACK 38 [0 2 0 0] 
r 3.029488385 _1_ RTR  --- 0 AODV 44 [13a 1 2 800] ------- [4:255 1:255 28 1] [0x4 3 [4 4] 10.000000] (REPLY)
s 3.029488385 _1_ RTR  --- 0 cbr 532 [0 0 0 0] ------- [1:0 4:0 30 2] [0] 0 0
r 3.029777885 _2_ MAC  --- 0 ACK 38 [0 2 0 0] 
s 3.030407385 _1_ MAC  --- 0 RTS 44 [14ee 2 1 0] 
r 3.030759885 _2_ MAC  --- 0 RTS 44 [14ee 2 1 0] 
s 3.030769885 _2_ MAC  --- 0 CTS 38 [13b4 1 0 0] 
r 3.031074385 _1_ MAC  --- 0 CTS 38 [13b4 1 0 0] 
s 3.031084385 _1_ MAC  --- 0 cbr 590 [13a 2 1 800] ------- [1:0 4:0 30 2] [0] 0 0
r 3.035804885 _2_ MAC  --- 0 cbr 532 [13a 2 1 800] ------- [1:0 4:0 30 2] [0] 1 0
s 3.035814885 _2_ MAC  --- 0 ACK 38 [0 1 0 0] 
r 3.035829885 _2_ RTR  --- 0 cbr 532 [13a 2 1 800] ------- [1:0 4:0 30 2] [0] 1 0
f 3.035829885 _2_ RTR  --- 0 cbr 532 [13a 2 1 800] ------- [1:0 4:0 29 3] [0] 1 0
r 3.036119385 _1_ MAC  --- 0 ACK 38 [0 1 0 0] 
s 3.036708885 _2_ MAC  --- 0 RTS 44 [14ee 3 2 0] 
r 3.037061385 _3_ MAC  --- 0 RTS 44 [14ee 3 2 0] 
s 3.037071385 _3_ MAC  --- 0 CTS 38 [13b4 2 0 0] 
r 3.037375885 _2_ MAC  --- 0 CTS 38 [13b4 2 0 0] 
s 3.037385885 _2_ MAC  --- 0 cbr 590 [13a 3 2 800] ------- [1:0 4:0 29 3] [0] 1 0
r 3.042106385 _3_ MAC  --- 0 cbr 532 [13a 3 2 800] ------- [1:0 4:0 29 3] [0] 2 0
s 3.042116385 _3_ MAC  --- 0 ACK 38 [0 2 0 0] 
r 3.042131385 _3_ RTR  --- 0 cbr 532 [13a 3 2 800] ------- [1:0 4:0 29 3] [0] 2 0
f 3.042131385 _3_ RTR  --- 0 cbr 532 [13a 3 2 800] ------- [1:0 4:0 28 4] [0] 2 0
r 3.042420885 _2_ MAC  --- 0 ACK 38 [0 2 0 0] 
s 3.042510385 _3_ MAC  --- 0 RTS 44 [14ee 4 3 0] 
r 3.042862885 _4_ MAC  --- 0 RTS 44 [14ee 4 3 0] 
s 3.042872885 _4_ MAC  --- 0 CTS 38 [13b4 3 0 0] 
r 3.043177385 _3_ MAC  --- 0 CTS 38 [13b4 3 0 0] 
s 3.043187385 _3_ MAC  --- 0 cbr 590 [13a 4 3 800] ------- [1:0 4:0 28 4] [0] 2 0
r 3.047907885 _4_ MAC  --- 0 cbr 532 [13a 4 3 800] ------- [1:0 4:0 28 4] [0] 3 0
s 3.047917885 _4_ MAC  --- 0 ACK 38 [0 3 0 0] 
r 3.047932885 _4_ AGT  --- 0 cbr 532 [13a 4 3 800] ------- [1:0 4:0 28 4] [0] 3 0
r 3.048222385 _3_ MAC  --- 0 ACK 38 [0 3 0 0] 
s 5.000000000 _2_ AGT  --- 1 cbr 512 [0 0 0 0] ------- [2:0 3:0 32 0] [0] 0 1
r 5.000000000 _2_ RTR  --- 1 cbr 512 [0 0 0 0] ------- [2:0 3:0 32 0] [0] 0 1
s 5.000000000 _2_ RTR  --- 0 AODV 48 [0 0 0 0] ------- [2:255 -1:255 30 0] [0x2 1 1 [3 0] [2 4]] (REQUEST)
s 5.000155000 _2_ MAC  --- 0 AODV 106 [0 ffffffff 2 800] ------- [2:255 -1:255 30 0] [0x2 1 1 [3 0] [2 4]] (REQUEST)
r 5.001003500 _1_ MAC  --- 0 AODV 48 [0 ffffffff 2 800] ------- [2:255 -1:255 30 0] [0x2 1 1 [3 0] [2 4]] (REQUEST)
r 5.001003500 _3_ MAC  --- 0 AODV 48 [0 ffffffff 2 800] ------- [2:255 -1:255 30 0] [0x2 1 1 [3 0] [2 4]] (REQUEST)
r 5.001028500 _1_ RTR  --- 0 AODV 48 [0 ffffffff 2 800] ------- [2:255 -1:255 30 0] [0x2 1 1 [3 0] [2 4]] (REQUEST)
r 5.001028500 _3_ RTR  --- 0 AODV 48 [0 ffffffff 2 800] ------- [2:255 -1:255 30 0] [0x2 1 1 [3 0] [2 4]] (REQUEST)
s 5.001028500 _3_ RTR  --- 0 AODV 44 [0 0 0 0] ------- [3:255 2:255 30 2] [0x4 1 [3 4] 10.000000] (REPLY)
s 5.001203500 _3_ MAC  --- 0 RTS 44 [5ae 2 3 0] 
s 5.001358309 _1_ AGT  --- 2 cbr 512 [0 0 0 0] ------- [1:0 4:0 32 0] [1] 0 0
r 5.001358309 _1_ RTR  --- 2 cbr 512 [0 0 0 0] ------- [1:0 4:0 32 0] [1] 0 0
s 5.001358309 _1_ RTR  --- 2 cbr 532 [0 0 0 0] ------- [1:0 4:0 30 2] [1] 0 0
r 5.001556000 _2_ MAC  --- 0 RTS 44 [5ae 2 3 0] 
s 5.001566000 _2_ MAC  --- 0 CTS 38 [474 3 0 0] 
r 5.001870500 _3_ MAC  --- 0 CTS 38 [474 3 0 0] 
s 5.001880500 _3_ MAC  --- 0 AODV 102 [13a 2 3 800] ------- [3:255 2:255 30 2] [0x4 1 [3 4] 10.000000] (REPLY)
r 5.002697000 _2_ MAC  --- 0 AODV 44 [13a 2 3 800] ------- [3:255 2:255 30 2] [0x4 1 [3 4] 10.000000] (REPLY)
s 5.002707000 _2_ MAC  --- 0 ACK 38 [0 3 0 0] 
r 5.002722000 _2_ RTR  --- 0 AODV 44 [13a 2 3 800] ------- [3:255 2:255 30 2] [0x4 1 [3 4] 10.000000] (REPLY)
s 5.002722000 _2_ RTR  --- 1 cbr 532 [0 0 0 0] ------- [2:0 3:0 30 3] [0] 0 1
r 5.003011500 _3_ MAC  --- 0 ACK 38 [0 3 0 0] 
s 5.003201000 _2_ MAC  --- 0 RTS 44 [14ee 3 2 0] 
r 5.003553500 _3_ MAC  --- 0 RTS 44 [14ee 3 2 0] 
s 5.003563500 _3_ MAC  --- 0 CTS 38 [13b4 2 0 0] 
r 5.003868000 _2_ MAC  --- 0 CTS 38 [13b4 2 0 0] 
s 5.003878000 _2_ MAC  --- 1 cbr 590 [13a 3 2 800] ------- [2:0 3:0 30 3] [0] 0 1
s 5.005070575 _1_ RTR  --- 0 AODV 48 [0 ffffffff 2 800] ------- [1:255 -1:255 29 0] [0x2 2 1 [3 0] [2 4]] (REQUEST)
r 5.008598500 _3_ MAC  --- 1 cbr 532 [13a 3 2 800] ------- [2:0 3:0 30 3] [0] 1 1
s 5.008608500 _3_ MAC  --- 0 ACK 38 [0 2 0 0] 
r 5.008623500 _3_ AGT  --- 1 cbr 532 [13a 3 2 800] ------- [2:0 3:0 30 3] [0] 1 1
r 5.008913000 _2_ MAC  --- 0 ACK 38 [0 2 0 0] 
s 5.009467500 _1_ MAC  --- 0 RTS 44 [14ee 2 1 0] 
r 5.009820000 _2_ MAC  --- 0 RTS 44 [14ee 2 1 0] 
s 5.009830000 _2_ MAC  --- 0 CTS 38 [13b4 1 0 0] 
r 5.010134500 _1_ MAC  --- 0 CTS 38 [13b4 1 0 0] 
s 5.010144500 _1_ MAC  --- 2 cbr 590 [13a 2 1 800] ------- [1:0 4:0 30 2] [1] 0 0
r 5.014865000 _2_ MAC  --- 2 cbr 532 [13a 2 1 800] ------- [1:0 4:0 30 2] [1] 1 0
s 5.014875000 _2_ MAC  --- 0 ACK 38 [0 1 0 0] 
r 5.014890000 _2_ RTR  --- 2 cbr 532 [13a 2 1 800] ------- [1:0 4:0 30 2] [1] 1 0
f 5.014890000 _2_ RTR  --- 2 cbr 532 [13a 2 1 800] ------- [1:0 4:0 29 3] [1] 1 0
r 5.015179500 _1_ MAC  --- 0 ACK 38 [0 1 0 0] 
s 5.015289500 _1_ MAC  --- 0 AODV 106 [0 ffffffff 1 800] ------- [1:255 -1:255 29 0] [0x2 2 1 [3 0] [2 4]] (REQUEST)
r 5.016138000 _0_ MAC  --- 0 AODV 48 [0 ffffffff 1 800] ------- [1:255 -1:255 29 0] [0x2 2 1 [3 0] [2 4]] (REQUEST)
r 5.016138000 _2_ MAC  --- 0 AODV 48 [0 ffffffff 1 800] ------- [1:255 -1:255 29 0] [0x2 2 1 [3 0] [2 4]] (REQUEST)
r 5.016163000 _0_ RTR  --- 0 AODV 48 [0 ffffffff 1 800] ------- [1:255 -1:255 29 0] [0x2 2 1 [3 0] [2 4]] (REQUEST)
r 5.016163000 _2_ RTR  --- 0 AODV 48 [0 ffffffff 1 800] ------- [1:255 -1:255 29 0] [0x2 2 1 [3 0] [2 4]] (REQUEST)
s 5.016208000 _2_ MAC  --- 0 RTS 44 [14ee 3 2 0] 
r 5.016560500 _3_ MAC  --- 0 RTS 44 [14ee 3 2 0] 
s 5.016570500 _3_ MAC  --- 0 CTS 38 [13b4 2 0 0] 
r 5.016875000 _2_ MAC  --- 0 CTS 38 [13b4 2 0 0] 
s 5.016885000 _2_ MAC  --- 2 cbr 590 [13a 3 2 800] ------- [1:0 4:0 29 3] [1] 1 0
r 5.021605500 _3_ MAC  --- 2 cbr 532 [13a 3 2 800] ------- [1:0 4:0 29 3] [1] 2 0
s 5.021615500 _3_ MAC  --- 0 ACK 38 [0 2 0 0] 
r 5.021630500 _3_ RTR  --- 2 cbr 532 [13a 3 2 800] ------- [1:0 4:0 29 3] [1] 2 0
f 5.021630500 _3_ RTR  --- 2 cbr 532 [13a 3 2 800] ------- [1:0 4:0 28 4] [1] 2 0
r 5.021920000 _2_ MAC  --- 0 ACK 38 [0 2 0 0] 
s 5.022113274 _0_ RTR  --- 0 AODV 48 [0 ffffffff 1 800] ------- [0:255 -1:255 28 0] [0x2 3 1 [3 0] [2 4]] (REQUEST)
s 5.022469500 _3_ MAC  --- 0 RTS 44 [14ee 4 3 0] 
r 5.022822000 _4_ MAC  --- 0 RTS 44 [14ee 4 3 0] 
s 5.022832000 _4_ MAC  --- 0 CTS 38 [13b4 3 0 0] 
r 5.023136500 _3_ MAC  --- 0 CTS 38 [13b4 3 0 0] 
s 5.023146500 _3_ MAC  --- 2 cbr 590 [13a 4 3 800] ------- [1:0 4:0 28 4] [1] 2 0
r 5.027867000 _4_ MAC  --- 2 cbr 532 [13a 4 3 800] ------- [1:0 4:0 28 4] [1] 3 0
s 5.027877000 _4_ MAC  --- 0 ACK 38 [0 3 0 0] 
r 5.027892000 _4_ AGT  --- 2 cbr 532 [13a 4 3 800] ------- [1:0 4:0 28 4] [1] 3 0
r 5.028181500 _3_ MAC  --- 0 ACK 38 [0 3 0 0] 
s 5.028342000 _0_ MAC  --- 0 AODV 106 [0 ffffffff 0 800] ------- [0:255 -1:255 28 0] [0x2 3 1 [3 0] [2 4]] (REQUEST)
r 5.029190500 _1_ MAC  --- 0 AODV 48 [0 ffffffff 0 800] ------- [0:255 -1:255 28 0] [0x2 3 1 [3 0] [2 4]] (REQUEST)
r 5.029215500 _1_ RTR  --- 0 AODV 48 [0 ffffffff 0 800] ------- [0:255 -1:255 28 0] [0x2 3 1 [3 0] [2 4]] (REQUEST)
s 10.551132493 _1_ AGT  --- 3 cbr 512 [0 0 0 0] ------- [1:0 4:0 32 0] [2] 0 0
r 10.551132493 _1_ RTR  --- 3 cbr 512 [0 0 0 0] ------- [1:0 4:0 32 0] [2] 0 0
s 10.551132493 _1_ RTR  --- 3 cbr 532 [0 0 0 0] ------- [1:0 4:0 30 2] [2] 0 0
s 10.551427493 _1_ MAC  --- 0 RTS 44 [14ee 2 1 0] 
r 10.551779993 _2_ MAC  --- 0 RTS 44 [14ee 2 1 0] 
s 10.551789993 _2_ MAC  --- 0 CTS 38 [13b4 1 0 0] 
r 10.552094493 _1_ MAC  --- 0 CTS 38 [13b4 1 0 0] 
s 10.552104493 _1_ MAC  --- 3 cbr 590 [13a 2 1 800] ------- [1:0 4:0 30 2] [2] 0 0
r 10.556824993 _2_ MAC  --- 3 cbr 532 [13a 2 1 800] ------- [1:0 4:0 30 2] [2] 1 0
s 10.556834993 _2_ MAC  --- 0 ACK 38 [0 1 0 0] 
r 10.556849993 _2_ RTR  --- 3 cbr 532 [13a 2 1 800] ------- [1:0 4:0 30 2] [2] 1 0
f 10.556849993 _2_ RTR  --- 3 cbr 532 [13a 2 1 800] ------- [1:0 4:0 29 3] [2] 1 0
r 10.557139493 _1_ MAC  --- 0 ACK 38 [0 1 0 0] 
s 10.557508993 _2_ MAC  --- 0 RTS 44 [14ee 3 2 0] 
r 10.557861493 _3_ MAC  --- 0 RTS 44 [14ee 3 2 0] 
s 10.557871493 _3_ MAC  --- 0 CTS 38 [13b4 2 0 0] 
r 10.558175993 _2_ MAC  --- 0 CTS 38 [13b4 2 0 0] 
s 10.558185993 _2_ MAC  --- 3 cbr 590 [13a 3 2 800] ------- [1:0 4:0 29 3] [2] 1 0
r 10.562906493 _3_ MAC  --- 3 cbr 532 [13a 3 2 800] ------- [1:0 4:0 29 3] [2] 2 0
s 10.562916493 _3_ MAC  --- 0 ACK 38 [0 2 0 0] 
r 10.562931493 _3_ RTR  --- 3 cbr 532 [13a 3 2 800] ------- [1:0 4:0 29 3] [2] 2 0
f 10.562931493 _3_ RTR  --- 3 cbr 532 [13a 3 2 800] ------- [1:0 4:0 28 4] [2] 2 0
r 10.563220993 _2_ MAC  --- 0 ACK 38 [0 2 0 0] 
s 10.563490493 _3_ MAC  --- 0 RTS 44 [14ee 4 3 0] 
r 10.563842993 _4_ MAC  --- 0 RTS 44 [14ee 4 3 0] 
s 10.563852993 _4_ MAC  --- 0 CTS 38 [13b4 3 0 0] 
r 10.564157493 _3_ MAC  --- 0 CTS 38 [13b4 3 0 0] 
s 10.564167493 _3_ MAC  --- 3 cbr 590 [13a 4 3 800] ------- [1:0 4:0 28 4] [2] 2 0
r 10.568887993 _4_ MAC  --- 3 cbr 532 [13a 4 3 800] ------- [1:0 4:0 28 4] [2] 3 0
s 10.568897993 _4_ MAC  --- 0 ACK 38 [0 3 0 0] 
r 10.568912993 _4_ AGT  --- 3 cbr 532 [13a 4 3 800] ------- [1:0 4:0 28 4] [2] 3 0
r 10.569202493 _3_ MAC  --- 0 ACK 38 [0 3 0 0] 
s 10.619781876 _2_ AGT  --- 4 cbr 512 [0 0 0 0] ------- [2:0 3:0 32 0] [1] 0 1
r 10.619781876 _2_ RTR  --- 4 cbr 512 [0 0 0 0] ------- [2:0 3:0 32 0] [1] 0 1
s 10.619781876 _2_ RTR  --- 4 cbr 532 [0 0 0 0] ------- [2:0 3:0 30 3] [1] 0 1
s 10.620096876 _2_ MAC  --- 0 RTS 44 [14ee 3 2 0] 
r 10.620449376 _3_ MAC  --- 0 RTS 44 [14ee 3 2 0] 
s 10.620459376 _3_ MAC  --- 0 CTS 38 [13b4 2 0 0] 
r 10.620763876 _2_ MAC  --- 0 CTS 38 [13b4 2 0 0] 
s 10.620773876 _2_ MAC  --- 4 cbr 590 [13a 3 2 800] ------- [2:0 3:0 30 3] [1] 0 1
r 10.625494376 _3_ MAC  --- 4 cbr 532 [13a 3 2 800] ------- [2:0 3:0 30 3] [1] 1 1
s 10.625504376 _3_ MAC  --- 0 ACK 38 [0 2 0 0] 
r 10.625519376 _3_ AGT  --- 4 cbr 532 [13a 3 2 800] ------- [2:0 3:0 30 3] [1] 1 1
r 10.625808876 _2_ MAC  --- 0 ACK 38 [0 2 0 0] 
s 13.364638890 _2_ AGT  --- 5 cbr 512 [0 0 0 0] ------- [2:0 3:0 32 0] [2] 0 1
r 13.364638890 _2_ RTR  --- 5 cbr 512 [0 0 0 0] ------- [2:0 3:0 32 0] [2] 0 1
s 13.364638890 _2_ RTR  --- 5 cbr 532 [0 0 0 0] ------- [2:0 3:0 30 3] [2] 0 1
s 13.364733890 _2_ MAC  --- 0 RTS 44 [14ee 3 2 0] 
r 13.365086390 _3_ MAC  --- 0 RTS 44 [14ee 3 2 0] 
s 13.365096390 _3_ MAC  --- 0 CTS 38 [13b4 2 0 0] 
r 13.365400890 _2_ MAC  --- 0 CTS 38 [13b4 2 0 0] 
s 13.365410890 _2_ MAC  --- 5 cbr 590 [13a 3 2 800] ------- [2:0 3:0 30 3] [2] 0 1
r 13.370131390 _3_ MAC  --- 5 cbr 532 [13a 3 2 800] ------- [2:0 3:0 30 3] [2] 1 1
s 13.370141390 _3_ MAC  --- 0 ACK 38 [0 2 0 0] 
r 13.370156390 _3_ AGT  --- 5 cbr 532 [13a 3 2 800] ------- [2:0 3:0 30 3] [2] 1 1
r 13.370445890 _2_ MAC  --- 0 ACK 38 [0 2 0 0] 
s 14.730420361 _1_ AGT  --- 6 cbr 512 [0 0 0 0] ------- [1:0 4:0 32 0] [3] 0 0
r 14.730420361 _1_ RTR  --- 6 cbr 512 [0 0 0 0] ------- [1:0 4:0 32 0] [3] 0 0
s 14.730420361 _1_ RTR  --- 6 cbr 532 [0 0 0 0] ------- [1:0 4:0 30 2] [3] 0 0
s 14.730615361 _1_ MAC  --- 0 RTS 44 [14ee 2 1 0] 
r 14.730967861 _2_ MAC  --- 0 RTS 44 [14ee 2 1 0] 
s 14.730977861 _2_ MAC  --- 0 CTS 38 [13b4 1 0 0] 
r 14.731282361 _1_ MAC  --- 0 CTS 38 [13b4 1 0 0] 
s 14.731292361 _1_ MAC  --- 6 cbr 590 [13a 2 1 800] ------- [1:0 4:0 30 2] [3] 0 0
r 14.736012861 _2_ MAC  --- 6 cbr 532 [13a 2 1 800] ------- [1:0 4:0 30 2] [3] 1 0
s 14.736022861 _2_ MAC  --- 0 ACK 38 [0 1 0 0] 
r 14.736037861 _2_ RTR  --- 6 cbr 532 [13a 2 1 800] ------- [1:0 4:0 30 2] [3] 1 0
f 14.736037861 _2_ RTR  --- 6 cbr 532 [13a 2 1 800] ------- [1:0 4:0 29 3] [3] 1 0
r 14.736327361 _1_ MAC  --- 0 ACK 38 [0 1 0 0] 
s 14.736676861 _2_ MAC  --- 0 RTS 44 [14ee 3 2 0] 
r 14.737029361 _3_ MAC  --- 0 RTS 44 [14ee 3 2 0] 
s 14.737039361 _3_ MAC  --- 0 CTS 38 [13b4 2 0 0] 
r 14.737343861 _2_ MAC  --- 0 CTS 38 [13b4 2 0 0] 
s 14.737353861 _2_ MAC  --- 6 cbr 590 [13a 3 2 800] ------- [1:0 4:0 29 3] [3] 1 0
r 14.742074361 _3_ MAC  --- 6 cbr 532 [13a 3 2 800] ------- [1:0 4:0 29 3] [3] 2 0
s 14.742084361 _3_ MAC  --- 0 ACK 38 [0 2 0 0] 
r 14.742099361 _3_ RTR  --- 6 cbr 532 [13a 3 2 800] ------- [1:0 4:0 29 3] [3] 2 0
f 14.742099361 _3_ RTR  --- 6 cbr 532 [13a 3 2 800] ------- [1:0 4:0 28 4] [3] 2 0
r 14.742388861 _2_ MAC  --- 0 ACK 38 [0 2 0 0] 
s 14.742898361 _3_ MAC  --- 0 RTS 44 [14ee 4 3 0] 
r 14.743250861 _4_ MAC  --- 0 RTS 44 [14ee 4 3 0] 
s 14.743260861 _4_ MAC  --- 0 CTS 38 [13b4 3 0 0] 
r 14.743565361 _3_ MAC  --- 0 CTS 38 [13b4 3 0 0] 
s 14.743575361 _3_ MAC  --- 6 cbr 590 [13a 4 3 800] ------- [1:0 4:0 28 4] [3] 2 0
r 14.748295861 _4_ MAC  --- 6 cbr 532 [13a 4 3 800] ------- [1:0 4:0 28 4] [3] 3 0
s 14.748305861 _4_ MAC  --- 0 ACK 38 [0 3 0 0] 
r 14.748320861 _4_ AGT  --- 6 cbr 532 [13a 4 3 800] ------- [1:0 4:0 28 4] [3] 3 0
r 14.748610361 _3_ MAC  --- 0 ACK 38 [0 3 0 0] 
s 17.445331761 _1_ AGT  --- 7 cbr 512 [0 0 0 0] ------- [1:0 4:0 32 0] [4] 0 0
r 17.445331761 _1_ RTR  --- 7 cbr 512 [0 0 0 0] ------- [1:0 4:0 32 0] [4] 0 0
s 17.445331761 _1_ RTR  --- 7 cbr 532 [0 0 0 0] ------- [1:0 4:0 30 2] [4] 0 0
s 17.445486761 _1_ MAC  --- 0 RTS 44 [14ee 2 1 0] 
r 17.445839261 _2_ MAC  --- 0 RTS 44 [14ee 2 1 0] 
s 17.445849261 _2_ MAC  --- 0 CTS 38 [13b4 1 0 0] 
r 17.446153761 _1_ MAC  --- 0 CTS 38 [13b4 1 0 0] 
s 17.446163761 _1_ MAC  --- 7 cbr 590 [13a 2 1 800] ------- [1:0 4:0 30 2] [4] 0 0
r 17.450884261 _2_ MAC  --- 7 cbr 532 [13a 2 1 800] ------- [1:0 4:0 30 2] [4] 1 0
s 17.450894261 _2_ MAC  --- 0 ACK 38 [0 1 0 0] 
r 17.450909261 _2_ RTR  --- 7 cbr 532 [13a 2 1 800] ------- [1:0 4:0 30 2] [4] 1 0
f 17.450909261 _2_ RTR  --- 7 cbr 532 [13a 2 1 800] ------- [1:0 4:0 29 3] [4] 1 0
r 17.451198761 _1_ MAC  --- 0 ACK 38 [0 1 0 0] 
s 17.451508261 _2_ MAC  --- 0 RTS 44 [14ee 3 2 0] 
r 17.451860761 _3_ MAC  --- 0 RTS 44 [14ee 3 2 0] 
s 17.451870761 _3_ MAC  --- 0 CTS 38 [13b4 2 0 0] 
r 17.452175261 _2_ MAC  --- 0 CTS 38 [13b4 2 0 0] 
s 17.452185261 _2_ MAC  --- 7 cbr 590 [13a 3 2 800] ------- [1:0 4:0 29 3] [4] 1 0
r 17.456905761 _3_ MAC  --- 7 cbr 532 [13a 3 2 800] ------- [1:0 4:0 29 3] [4] 2 0
s 17.456915761 _3_ MAC  --- 0 ACK 38 [0 2 0 0] 
r 17.456930761 _3_ RTR  --- 7 cbr 532 [13a 3 2 800] ------- [1:0 4:0 29 3] [4] 2 0
f 17.456930761 _3_ RTR  --- 7 cbr 532 [13a 3 2 800] ------- [1:0 4:0 28 4] [4] 2 0
r 17.457220261 _2_ MAC  --- 0 ACK 38 [0 2 0 0] 
s 17.457329761 _3_ MAC  --- 0 RTS 44 [14ee 4 3 0] 
r 17.457682261 _4_ MAC  --- 0 RTS 44 [14ee 4 3 0] 
s 17.457692261 _4_ MAC  --- 0 CTS 38 [13b4 3 0 0] 
r 17.457996761 _3_ MAC  --- 0 CTS 38 [13b4 3 0 0] 
s 17.458006761 _3_ MAC  --- 7 cbr 590 [13a 4 3 800] ------- [1:0 4:0 28 4] [4] 2 0
r 17.462727261 _4_ MAC  --- 7 cbr 532 [13a 4 3 800] ------- [1:0 4:0 28 4] [4] 3 0
s 17.462737261 _4_ MAC  --- 0 ACK 38 [0 3 0 0] 
r 17.462752261 _4_ AGT  --- 7 cbr 532 [13a 4 3 800] ------- [1:0 4:0 28 4] [4] 3 0
r 17.463041761 _3_ MAC  --- 0 ACK 38 [0 3 0 0] 
s 18.455421839 _2_ AGT  --- 8 cbr 512 [0 0 0 0] ------- [2:0 3:0 32 0] [3] 0 1
r 18.455421839 _2_ RTR  --- 8 cbr 512 [0 0 0 0] ------- [2:0 3:0 32 0] [3] 0 1
s 18.455421839 _2_ RTR  --- 8 cbr 532 [0 0 0 0] ------- [2:0 3:0 30 3] [3] 0 1
s 18.455556839 _2_ MAC  --- 0 RTS 44 [14ee 3 2 0] 
r 18.455909339 _3_ MAC  --- 0 RTS 44 [14ee 3 2 0] 
s 18.455919339 _3_ MAC  --- 0 CTS 38 [13b4 2 0 0] 
r 18.456223839 _2_ MAC  --- 0 CTS 38 [13b4 2 0 0] 
s 18.456233839 _2_ MAC  --- 8 cbr 590 [13a 3 2 800] ------- [2:0 3:0 30 3] [3] 0 1
r 18.460954339 _3_ MAC  --- 8 cbr 532 [13a 3 2 800] ------- [2:0 3:0 30 3] [3] 1 1
s 18.460964339 _3_ MAC  --- 0 ACK 38 [0 2 0 0] 
r 18.460979339 _3_ AGT  --- 8 cbr 532 [13a 3 2 800] ------- [2:0 3:0 30 3] [3] 1 1
r 18.461268839 _2_ MAC  --- 0 ACK 38 [0 2 0 0] 
s 22.385696265 _1_ AGT  --- 9 cbr 512 [0 0 0 0] ------- [1:0 4:0 32 0] [5] 0 0
r 22.385696265 _1_ RTR  --- 9 cbr 512 [0 0 0 0] ------- [1:0 4:0 32 0] [5] 0 0
s 22.385696265 _1_ RTR  --- 9 cbr 532 [0 0 0 0] ------- [1:0 4:0 30 2] [5] 0 0
s 22.386371265 _1_ MAC  --- 0 RTS 44 [14ee 2 1 0] 
r 22.386723765 _2_ MAC  --- 0 RTS 44 [14ee 2 1 0] 
s 22.386733765 _2_ MAC  --- 0 CTS 38 [13b4 1 0 0] 
r 22.387038265 _1_ MAC  --- 0 CTS 38 [13b4 1 0 0] 
s 22.387048265 _1_ MAC  --- 9 cbr 590 [13a 2 1 800] ------- [1:0 4:0 30 2] [5] 0 0
r 22.391768765 _2_ MAC  --- 9 cbr 532 [13a 2 1 800] ------- [1:0 4:0 30 2] [5] 1 0
s 22.391778765 _2_ MAC  --- 0 ACK 38 [0 1 0 0] 
r 22.391793765 _2_ RTR  --- 9 cbr 532 [13a 2 1 800] ------- [1:0 4:0 30 2] [5] 1 0
f 22.391793765 _2_ RTR  --- 9 cbr 532 [13a 2 1 800] ------- [1:0 4:0 29 3] [5] 1 0
r 22.392083265 _1_ MAC  --- 0 ACK 38 [0 1 0 0] 
s 22.392572765 _2_ MAC  --- 0 RTS 44 [14ee 3 2 0] 
r 22.392925265 _3_ MAC  --- 0 RTS 44 [14ee 3 2 0] 
s 22.392935265 _3_ MAC  --- 0 CTS 38 [13b4 2 0 0] 
r 22.393239765 _2_ MAC  --- 0 CTS 38 [13b4 2 0 0] 
s 22.393249765 _2_ MAC  --- 9 cbr 590 [13a 3 2 800] ------- [1:0 4:0 29 3] [5] 1 0
r 22.397970265 _3_ MAC  --- 9 cbr 532 [13a 3 2 800] ------- [1:0 4:0 29 3] [5] 2 0
s 22.397980265 _3_ MAC  --- 0 ACK 38 [0 2 0 0] 
r 22.397995265 _3_ RTR  --- 9 cbr 532 [13a 3 2 800] ------- [1:0 4:0 29 3] [5] 2 0
f 22.397995265 _3_ RTR  --- 9 cbr 532 [13a 3 2 800] ------- [1:0 4:0 28 4] [5] 2 0
r 22.398284765 _2_ MAC  --- 0 ACK 38 [0 2 0 0] 
s 22.398634265 _3_ MAC  --- 0 RTS 44 [14ee 4 3 0] 
r 22.398986765 _4_ MAC  --- 0 RTS 44 [14ee 4 3 0] 
s 22.398996765 _4_ MAC  --- 0 CTS 38 [13b4 3 0 0] 
r 22.399301265 _3_ MAC  --- 0 CTS 38 [13b4 3 0 0] 
s 22.399311265 _3_ MAC  --- 9 cbr 590 [13a 4 3 800] ------- [1:0 4:0 28 4] [5] 2 0
r 22.404031765 _4_ MAC  --- 9 cbr 532 [13a 4 3 800] ------- [1:0 4:0 28 4] [5] 3 0
s 22.404041765 _4_ MAC  --- 0 ACK 38 [0 3 0 0] 
r 22.404056765 _4_ AGT  --- 9 cbr 532 [13a 4 3 800] ------- [1:0 4:0 28 4] [5] 3 0
r 22.404346265 _3_ MAC  --- 0 ACK 38 [0 3 0 0] 
s 22.799871759 _2_ AGT  --- 10 cbr 512 [0 0 0 0] ------- [2:0 3:0 32 0] [4] 0 1
r 22.799871759 _2_ RTR  --- 10 cbr 512 [0 0 0 0] ------- [2:0 3:0 32 0] [4] 0 1
s 22.799871759 _2_ RTR  --- 10 cbr 532 [0 0 0 0] ------- [2:0 3:0 30 3] [4] 0 1
s 22.799986759 _2_ MAC  --- 0 RTS 44 [14ee 3 2 0] 
r 22.800339259 _3_ MAC  --- 0 RTS 44 [14ee 3 2 0] 
s 22.800349259 _3_ MAC  --- 0 CTS 38 [13b4 2 0 0] 
r 22.800653759 _2_ MAC  --- 0 CTS 38 [13b4 2 0 0] 
s 22.800663759 _2_ MAC  --- 10 cbr 590 [13a 3 2 800] ------- [2:0 3:0 30 3] [4] 0 1
r 22.805384259 _3_ MAC  --- 10 cbr 532 [13a 3 2 800] ------- [2:0 3:0 30 3] [4] 1 1
s 22.805394259 _3_ MAC  --- 0 ACK 38 [0 2 0 0] 
r 22.805409259 _3_ AGT  --- 10 cbr 532 [13a 3 2 800] ------- [2:0 3:0 30 3] [4] 1 1
r 22.805698759 _2_ MAC  --- 0 ACK 38 [0 2 0 0] 
s 25.809930586 _1_ AGT  --- 11 cbr 512 [0 0 0 0] ------- [1:0 4:0 32 0] [6] 0 0
r 25.809930586 _1_ RTR  --- 11 cbr 512 [0 0 0 0] ------- [1:0 4:0 32 0] [6] 0 0
s 25.809930586 _1_ RTR  --- 11 cbr 532 [0 0 0 0] ------- [1:0 4:0 30 2] [6] 0 0
s 25.810185586 _1_ MAC  --- 0 RTS 44 [14ee 2 1 0] 
r 25.810538086 _2_ MAC  --- 0 RTS 44 [14ee 2 1 0] 
s 25.810548086 _2_ MAC  --- 0 CTS 38 [13b4 1 0 0] 
r 25.810852586 _1_ MAC  --- 0 CTS 38 [13b4 1 0 0] 
s 25.810862586 _1_ MAC  --- 11 cbr 590 [13a 2 1 800] ------- [1:0 4:0 30 2] [6] 0 0
r 25.815583086 _2_ MAC  --- 11 cbr 532 [13a 2 1 800] ------- [1:0 4:0 30 2] [6] 1 0
s 25.815593086 _2_ MAC  --- 0 ACK 38 [0 1 0 0] 
r 25.815608086 _2_ RTR  --- 11 cbr 532 [13a 2 1 800] ------- [1:0 4:0 30 2] [6] 1 0
f 25.815608086 _2_ RTR  --- 11 cbr 532 [13a 2 1 800] ------- [1:0 4:0 29 3] [6] 1 0
r 25.815897586 _1_ MAC  --- 0 ACK 38 [0 1 0 0] 
s 25.816107086 _2_ MAC  --- 0 RTS 44 [14ee 3 2 0] 
r 25.816459586 _3_ MAC  --- 0 RTS 44 [14ee 3 2 0] 
s 25.816469586 _3_ MAC  --- 0 CTS 38 [13b4 2 0 0] 
r 25.816774086 _2_ MAC  --- 0 CTS 38 [13b4 2 0 0] 
s 25.816784086 _2_ MAC  --- 11 cbr 590 [13a 3 2 800] ------- [1:0 4:0 29 3] [6] 1 0
r 25.821504586 _3_ MAC  --- 11 cbr 532 [13a 3 2 800] ------- [1:0 4:0 29 3] [6] 2 0
s 25.821514586 _3_ MAC  --- 0 ACK 38 [0 2 0 0] 
r 25.821529586 _3_ RTR  --- 11 cbr 532 [13a 3 2 800] ------- [1:0 4:0 29 3] [6] 2 0
f 25.821529586 _3_ RTR  --- 11 cbr 532 [13a 3 2 800] ------- [1:0 4:0 28 4] [6] 2 0
r 25.821819086 _2_ MAC  --- 0 ACK 38 [0 2 0 0] 
s 25.822268586 _3_ MAC  --- 0 RTS 44 [14ee 4 3 0] 
r 25.822621086 _4_ MAC  --- 0 RTS 44 [14ee 4 3 0] 
s 25.822631086 _4_ MAC  --- 0 CTS 38 [13b4 3 0 0] 
r 25.822935586 _3_ MAC  --- 0 CTS 38 [13b4 3 0 0] 
s 25.822945586 _3_ MAC  --- 11 cbr 590 [13a 4 3 800] ------- [1:0 4:0 28 4] [6] 2 0
r 25.827666086 _4_ MAC  --- 11 cbr 532 [13a 4 3 800] ------- [1:0 4:0 28 4] [6] 3 0
s 25.827676086 _4_ MAC  --- 0 ACK 38 [0 3 0 0] 
r 25.827691086 _4_ AGT  --- 11 cbr 532 [13a 4 3 800] ------- [1:0 4:0 28 4] [6] 3 0
r 25.827980586 _3_ MAC  --- 0 ACK 38 [0 3 0 0] 
s 26.984363830 _2_ AGT  --- 12 cbr 512 [0 0 0 0] ------- [2:0 3:0 32 0] [5] 0 1
r 26.984363830 _2_ RTR  --- 12 cbr 512 [0 0 0 0] ------- [2:0 3:0 32 0] [5] 0 1
s 26.984363830 _2_ RTR  --- 12 cbr 532 [0 0 0 0] ------- [2:0 3:0 30 3] [5] 0 1
s 26.984438830 _2_ MAC  --- 0 RTS 44 [14ee 3 2 0] 
r 26.984791330 _3_ MAC  --- 0 RTS 44 [14ee 3 2 0] 
s 26.984801330 _3_ MAC  --- 0 CTS 38 [13b4 2 0 0] 
r 26.985105830 _2_ MAC  --- 0 CTS 38 [13b4 2 0 0] 
s 26.985115830 _2_ MAC  --- 12 cbr 590 [13a 3 2 800] ------- [2:0 3:0 30 3] [5] 0 1
r 26.989836330 _3_ MAC  --- 12 cbr 532 [13a 3 2 800] ------- [2:0 3:0 30 3] [5] 1 1
s 26.989846330 _3_ MAC  --- 0 ACK 38 [0 2 0 0] 
r 26.989861330 _3_ AGT  --- 12 cbr 532 [13a 3 2 800] ------- [2:0 3:0 30 3] [5] 1 1
r 26.990150830 _2_ MAC  --- 0 ACK 38 [0 2 0 0] 
s 28.143650149 _1_ AGT  --- 13 cbr 512 [0 0 0 0] ------- [1:0 4:0 32 0] [7] 0 0
r 28.143650149 _1_ RTR  --- 13 cbr 512 [0 0 0 0] ------- [1:0 4:0 32 0] [7] 0 0
s 28.143650149 _1_ RTR  --- 13 cbr 532 [0 0 0 0] ------- [1:0 4:0 30 2] [7] 0 0
s 28.144045149 _1_ MAC  --- 0 RTS 44 [14ee 2 1 0] 
r 28.144397649 _2_ MAC  --- 0 RTS 44 [14ee 2 1 0] 
s 28.144407649 _2_ MAC  --- 0 CTS 38 [13b4 1 0 0] 
r 28.144712149 _1_ MAC  --- 0 CTS 38 [13b4 1 0 0] 
s 28.144722149 _1_ MAC  --- 13 cbr 590 [13a 2 1 800] ------- [1:0 4:0 30 2] [7] 0 0
r 28.149442649 _2_ MAC  --- 13 cbr 532 [13a 2 1 800] ------- [1:0 4:0 30 2] [7] 1 0
s 28.149452649 _2_ MAC  --- 0 ACK 38 [0 1 0 0] 
r 28.149467649 _2_ RTR  --- 13 cbr 532 [13a 2 1 800] ------- [1:0 4:0 30 2] [7] 1 0
f 28.149467649 _2_ RTR  --- 13 cbr 532 [13a 2 1 800] ------- [1:0 4:0 29 3] [7] 1 0
r 28.149757149 _1_ MAC  --- 0 ACK 38 [0 1 0 0] 
s 28.150226649 _2_ MAC  --- 0 RTS 44 [14ee 3 2 0] 
r 28.150579149 _3_ MAC  --- 0 RTS 44 [14ee 3 2 0] 
s 28.150589149 _3_ MAC  --- 0 CTS 38 [13b4 2 0 0] 
r 28.150893649 _2_ MAC  --- 0 CTS 38 [13b4 2 0 0] 
s 28.150903649 _2_ MAC  --- 13 cbr 590 [13a 3 2 800] ------- [1:0 4:0 29 3] [7] 1 0
r 28.155624149 _3_ MAC  --- 13 cbr 532 [13a 3 2 800] ------- [1:0 4:0 29 3] [7] 2 0
s 28.155634149 _3_ MAC  --- 0 ACK 38 [0 2 0 0] 
r 28.155649149 _3_ RTR  --- 13 cbr 532 [13a 3 2 800] ------- [1:0 4:0 29 3] [7] 2 0
f 28.155649149 _3_ RTR  --- 13 cbr 532 [13a 3 2 800] ------- [1:0 4:0 28 4] [7] 2 0
r 28.155938649 _2_ MAC  --- 0 ACK 38 [0 2 0 0] 
s 28.156308149 _3_ MAC  --- 0 RTS 44 [14ee 4 3 0] 